LAMMPS data file. CGCMM style. atom_style full generated by VMD/TopoTools v1.7 on Fri Jun 26 21:26:34 -0500 2020
 5828 atoms
 5882 bonds
 10665 angles
 18511 dihedrals
 0 impropers
 40 atom types
 73 bond types
 164 angle types
 392 dihedral types
 0 improper types
 -91.4432 -32.5870  xlo xhi
 -173.152426 -47.596853  ylo yhi
 -44.6256  27.5931  zlo zhi

Masses

 1 1.008000 # 1
 2 1.008000 # 10  original 10
 3 1.008000 # 11
 4 12.011000 # 12
 5 12.011000 # 13
 6 12.011000 # 14
 7 12.011000 # 15
 8 12.011000 # 16
 9 12.011000 # 17
 10 12.011000 # 18
 11 12.011000 # 19
 12 1.008000 # 2
 13 12.011000 # 20
 14 12.011000 # 21
 15 12.011000 # 22
 16 12.011000 # 23
 17 12.011000 # 24
 18 12.011000 # 25
 19 12.011000 # 26
 20 14.007000 # 27
 21 14.007000 # 28
 22 14.007000 # 29
 23 1.008000 # 3
 24 14.007000 # 30
 25 14.007000 # 31
 26 14.007000 # 32
 27 14.007000 # 33
 28 14.007000 # 34
 29 15.999000 # 35
 30 15.999000 # 36
 31 15.999000 # 37
 32 32.060001 # 38
 33 32.060001 # 39
 34 1.008000 # 4
 35 22.980000 # 40
 36 1.008000 # 5
 37 1.008000 # 6
 38 1.008000 # 7
 39 1.008000 # 8
 40 1.008000 # 9

Pair Coeffs # lj/charmm/coul/charmm

1 0.046 0.400014 0.046 0.400014
2 0.034 2.38761 0.034 2.38761
3 0.024 2.38761 0.024 2.38761
4 0.11 3.56359 0.11 3.56359
5 0.07 3.55005 0.07 3.55005
6 0.032 3.56359 0.01 3.38542
7 0.056 3.58141 0.01 3.38542
8 0.056 3.58141 0.01 3.38542
9 0.078 3.63487 0.01 3.38542
10 0.05 3.20724 0.05 3.20724
11 0.05 3.20724 0.05 3.20724
12 0.046 0.400014 0.046 0.400014
13 0.099 3.31414 0.099 3.31414
14 0.073 3.54578 0.073 3.54578
15 0.02 4.05359 0.01 3.38542
16 0.055 3.87541 0.01 3.38542
17 0.055 3.87541 0.01 3.38542
18 0.07 3.56359 0.07 3.56359
19 0.073 3.54578 0.073 3.54578
20 0.2 3.29633 0.0001 3.29633
21 0.2 3.29633 0.2 3.29633
22 0.2 3.29633 0.2 3.29633
23 0.03 2.42004 0.03 2.42004
24 0.2 3.29633 0.2 2.76179
25 0.2 3.29633 0.2 3.29633
26 0.2 3.29633 0.2 3.29633
27 0.2 3.29633 0.2 3.29633
28 0.2 3.29633 0.2 3.29633
29 0.12 3.02906 0.12 2.49452
30 0.12 3.02906 0.12 3.02906
31 0.1521 3.15378 0.1521 3.15378
32 0.45 3.56359 0.45 3.56359
33 0.38 3.51905 0.38 3.51905
34 0.022 2.35197 0.022 2.35197
35 0.5 3.144 0.5 3.144
36 0.028 2.38761 0.028 2.38761
37 0.046 1.60362 0.046 1.60362
38 0.0078 2.61568 0.0078 2.61568
39 0.1 0.801809 0.1 0.801809
40 0.045 2.38761 0.045 2.38761

Bond Coeffs # harmonic

1 250 1.49
2 230 1.49
3 350 1.365
4 340 1.08
5 270 1.37
6 334.3 1.411
7 300 1.36
8 340 1.08
9 200 1.522
10 200 1.522
11 200 1.522
12 250 1.49
13 430 1.36
14 650 1.23
15 525 1.26
16 222.5 1.527
17 330 1.08
18 320 1.434
19 222.5 1.537
20 222.5 1.537
21 309 1.111
22 309 1.111
23 250 1.49
24 320 1.455
25 410 1.36
26 229.63 1.5
27 365 1.083
28 400 1.38
29 400 1.38
30 340 1.09
31 400 1.36
32 400 1.32
33 360 1.385
34 260 1.3
35 350 1.43
36 270 1.37
37 222.5 1.5
38 222.5 1.538
39 222.5 1.538
40 222.5 1.538
41 309 1.111
42 330 1.08
43 320 1.43
44 428 1.42
45 450 1.365
46 222.5 1.53
47 222.5 1.53
48 222.5 1.528
49 375 1.492
50 309 1.111
51 330 1.08
52 390 1.49
53 320 1.43
54 200 1.48
55 428 1.42
56 370 1.345
57 198 1.818
58 214 1.816
59 309 1.111
60 322 1.111
61 240 1.816
62 440 0.997
63 480 1
64 466 1
65 537.5 0.976
66 545 0.96
67 620 1.23
68 455 1
69 403 1.04
70 275 1.325
71 173 2.029
72 305 1.375
73 305 1.375

Angle Coeffs # charmm

1 52 112.3 0 0
2 50 109.5 0 0
3 50 116.5 50 2.45
4 15 121 50 2.44
5 40 118 50 2.388
6 45.8 124 0 0
7 53.35 114 8 2.561
8 34.5 110.1 22.53 2.179
9 35 111 0 0
10 70 113.5 0 0
11 58.35 113.6 11.16 2.561
12 26.5 110.1 22.53 2.179
13 50 107 0 0
14 67.7 107.5 0 0
15 67.7 110 0 0
16 58 114.5 0 0
17 26.5 110.1 22.53 2.179
18 34.6 110.1 22.53 2.179
19 40.4 120 0 0
20 35 117 0 0
21 30 109.5 20 2.074
22 57.5 106 0 0
23 34 95 0 0
24 60 117 0 0
25 38.8 95 0 0
26 72.5 103.3 0 0
27 40 118 50 2.388
28 35 111 0 0
29 70 113.5 0 0
30 26.5 110.1 22.53 2.179
31 53.35 114 8 2.561
32 34.5 110.1 22.53 2.179
33 35 111 0 0
34 70 113.5 0 0
35 60 117 0 0
36 75.7 110.1 0 0
37 34.6 110.1 22.53 2.179
38 32 125 25 2.173
39 85 110.5 25 2.24
40 55 109.5 0 0
41 23 120 0 0
42 45.9 108.89 0 0
43 35.5 109 5.4 1.802
44 35.5 109 5.4 1.802
45 48 108 0 0
46 62.3 120 0 0
47 35.5 109 5.4 1.802
48 56.5 107.5 0 0
49 45 107.5 35 2.101
50 45.9 108.89 0 0
51 46.1 111.3 0 0
52 38 111 0 0
53 35.5 109 5.4 1.802
54 35.5 108.4 5.4 1.802
55 46.1 111.3 0 0
56 48 112 0 0
57 49 120 0 0
58 48 108 0 0
59 36 115 0 0
60 48 108 0 0
61 25 120 0 0
62 44 109.5 0 0
63 32 125 25 2.177
64 25 122.5 20 2.14
65 25 125 20 2.12
66 25 120 20 2.14
67 80 122.5 0 0
68 50 120 0 0
69 40 120 70 2.31
70 80 122.5 0 0
71 75 122.5 50 2.37
72 130 112.5 0 0
73 100 124 70 2.225
74 50 120 0 0
75 34 123 0 0
76 40 120 35 2.4162
77 50 112 0 0
78 40 120 35 2.4162
79 45.8 122.3 0 0
80 30 120 22 2.1525
81 45.2 120 0 0
82 50 113.2 0 0
83 30 120 22 2.1525
84 51.8 107.5 0 0
85 49.3 107.5 0 0
86 85 106.4 25 2.261
87 30 127 0 0
88 50 108.2 0 0
89 85 112 0 0
90 28 126 0 0
91 65 108 0 0
92 30 120 22 2.1525
93 50 110 0 0
94 130 133.5 0 0
95 130 129.5 0 0
96 52 108 0 0
97 50 109.5 0 0
98 50 107 0 0
99 52 108 0 0
100 52 108 0 0
101 52 108 0 0
102 52 108 0 0
103 33 109.5 30 2.163
104 52 108 0 0
105 33 109.5 30 2.163
106 50 120 0 0
107 20 112.5 0 0
108 80 116.5 0 0
109 80 118 0 0
110 52 108 0 0
111 70 108.5 0 0
112 33.43 110.1 22.53 2.179
113 100 114.2 0 0
114 35 118 0 0
115 70 110.8 0 0
116 70 108.5 0 0
117 26.5 110.1 22.53 2.179
118 26.5 110.1 22.53 2.179
119 70 110.5 0 0
120 26.5 110.1 22.53 2.179
121 52 108 0 0
122 45.8 130 0 0
123 25 130 20 2.2
124 130 106 0 0
125 130 110 0 0
126 58.35 113 0 0
127 33.43 109.5 0 0
128 130 107.5 0 0
129 30 125.5 20 2.15
130 130 104 0 0
131 30 127 20 2.14
132 52 108 0 0
133 30 122 22 2.146
134 85 108 0 0
135 95 107.4 0 0
136 30 126.7 0 0
137 28 126 0 0
138 20 112.5 0 0
139 80 116.5 0 0
140 80 121 0 0
141 40 118 50 2.388
142 53.35 111 8 2.561
143 50 109.5 0 0
144 53.35 108.5 8 2.561
145 34.5 110.1 22.53 2.179
146 35 111 0 0
147 70 113.5 0 0
148 75.7 110.1 0 0
149 58.35 113.5 11.16 2.561
150 58.35 113.5 11.16 2.561
151 58.35 113.5 11.16 2.561
152 58.35 114 0 0
153 26.5 110.1 22.53 2.179
154 50 107 0 0
155 75.7 110.1 0 0
156 58 112.5 0 0
157 58 112.5 0 0
158 58.35 113.5 11.16 2.561
159 26.5 110.1 22.53 2.179
160 33.43 110.1 22.53 2.179
161 35 117 0 0
162 57.5 106 0 0
163 80 116.5 0 0
164 80 121 0 0

Dihedral Coeffs # charmm

1 0.14 3 0 1
2 0.33 3 180 0
3 0.2 3 0 1
4 0 1 0 1
5 0.2 3 0 1
6 0.28 1 180 1
7 0.5 2 180 0
8 0.38 3 0 0
9 1.84 1 180 1
10 0.84 2 180 0
11 0.39 3 180 0
12 0.19 3 0 1
13 0.2 3 0 1
14 0 1 180 1
15 0.38 2 180 0
16 0.59 3 180 0
17 0.19 3 0 1
18 0.2 3 0 1
19 0.68 1 180 1
20 0.1 2 180 0
21 0.38 3 0 0
22 2.75 2 180 1
23 0.3 4 0 0
24 0.79 1 180 1
25 2.75 2 180 1
26 0.3 4 0 0
27 1.6 1 0 1
28 2.5 2 180 0
29 1.6 1 0 1
30 2.5 2 180 0
31 2.5 2 180 1
32 0.16 3 0 0
33 0.16 3 0 1
34 2.75 2 180 1
35 0.39 2 180 0
36 0.3 4 0 0
37 2.75 2 180 1
38 0.3 4 0 0
39 0.1 3 0 0
40 0.1 3 0 1
41 0.4 1 0 1
42 0.6 2 0 0
43 0.4 1 0 1
44 0.6 2 0 0
45 0.4 1 180 1
46 0.99 3 180 0
47 0.6 2 0 0
48 0.1 3 0 0
49 0.14 3 0 1
50 0.14 3 0 0
51 0.14 3 0 1
52 0.14 3 0 0
53 0.16 3 0 1
54 2.75 2 180 1
55 0.3 4 0 0
56 2.75 2 180 1
57 1.28 1 180 1
58 0.3 4 0 0
59 0.1 3 0 1
60 1.74 1 0 1
61 0.15 2 0 0
62 0.77 3 180 0
63 0 3 0 1
64 14 2 180 0
65 1 2 180 1
66 14 2 180 0
67 0.2 3 0 1
68 0.94 2 180 0
69 0 1 0 1
70 0.9 3 0 0
71 3 2 180 1
72 14 2 180 0
73 3 2 180 1
74 14 2 180 0
75 3 2 180 1
76 3 2 180 1
77 3 2 180 1
78 1.57 3 180 0
79 3 2 180 1
80 3 2 180 1
81 0.85 2 180 1
82 2.8 2 180 1
83 5 2 180 0
84 0.36 1 180 1
85 0.05 2 0 0
86 0.19 3 180 0
87 0.2 3 0 1
88 6 2 180 0
89 1.41 1 180 1
90 2.6 2 180 1
91 1.6 1 0 1
92 2.5 2 180 0
93 1.6 1 0 1
94 2.5 2 180 0
95 2.5 2 180 1
96 0 1 0 1
97 0 1 0 1
98 1.4 1 0 1
99 0.38 1 180 1
100 1.29 2 180 0
101 0.13 2 180 0
102 0.29 3 180 0
103 0.2 3 0 1
104 0.2 3 0 1
105 0 1 0 1
106 0.18 1 0 1
107 0.06 2 0 0
108 0.25 3 0 0
109 0.62 1 180 1
110 0.66 2 180 0
111 0.14 3 0 1
112 0.59 3 180 0
113 0.72 3 180 0
114 0.42 1 180 1
115 0.15 2 180 0
116 0.95 3 180 0
117 1.49 1 0 1
118 0.09 2 180 0
119 0.79 3 180 0
120 0.05 1 0 1
121 0.1 2 180 0
122 0.01 3 180 0
123 0.18 1 180 1
124 0.2 3 0 1
125 0.2 3 0 1
126 0.48 1 180 1
127 0.42 2 180 0
128 0.65 3 0 0
129 0.63 1 180 1
130 0.01 2 0 0
131 0.15 3 0 0
132 0.19 3 0 1
133 0.14 1 180 1
134 0.64 2 180 0
135 0.54 2 0 0
136 0.69 3 0 0
137 0.16 3 0 1
138 0.02 1 0 1
139 0.56 2 0 0
140 0.49 3 0 0
141 0.2 1 0 1
142 0.65 2 0 0
143 0.22 3 0 0
144 0.31 3 0 1
145 0.87 3 180 0
146 0.84 1 0 1
147 0.98 2 180 0
148 1.46 3 0 0
149 0.19 3 0 1
150 1.6 1 0 1
151 2.5 2 180 0
152 2.5 2 180 1
153 1.6 1 0 1
154 2.5 2 180 0
155 2.5 2 180 1
156 0.32 1 180 1
157 4.2 2 180 1
158 1.4 2 180 1
159 2 2 180 1
160 3 2 180 1
161 1 2 180 1
162 0 1 0 1
163 0 1 0 1
164 1.4 1 0 1
165 0.2 3 0 1
166 0.12 1 180 1
167 0.61 2 180 0
168 0.36 2 180 0
169 0.41 3 0 0
170 0.2 3 0 1
171 0 1 0 1
172 0.05 6 180 1
173 0.05 6 180 1
174 0.2 3 0 1
175 0.88 1 180 1
176 1.9 3 0 0
177 0.72 3 180 0
178 0.1 2 180 1
179 0.15 4 0 0
180 0.1 6 180 0
181 0.19 3 0 1
182 0.19 3 0 1
183 0.19 3 0 1
184 0 6 180 1
185 0.1 3 0 1
186 0.24 1 180 1
187 0.37 3 0 0
188 0.35 1 180 1
189 0.2 3 0 1
190 0.3 1 0 1
191 0.35 2 0 0
192 1.76 3 0 0
193 1.2 2 180 1
194 2.5 2 180 1
195 2.25 2 180 1
196 2.5 2 180 1
197 0.28 3 0 1
198 1 1 0 1
199 0.42 2 180 0
200 4.1 2 0 0
201 0.9 3 0 0
202 0 1 0 1
203 0 1 0 1
204 1.4 1 0 1
205 0.05 6 180 1
206 0 1 0 1
207 0.05 6 180 1
208 0 1 0 1
209 0 1 0 1
210 1.91 3 180 0
211 1.4 1 0 1
212 0.2 3 0 1
213 0.18 1 0 1
214 0.06 2 0 0
215 0.59 3 0 0
216 0.2 3 0 1
217 0.2 3 0 1
218 0.2 3 0 1
219 0 1 0 1
220 1.33 1 0 1
221 0.8 3 0 1
222 1.09 1 180 1
223 0.18 2 0 0
224 0.32 3 0 0
225 0.2 3 0 1
226 0.28 3 0 1
227 0.05 2 180 1
228 4 2 180 1
229 6.5 2 180 0
230 0.2 3 0 1
231 0.29 1 180 1
232 0.66 2 180 0
233 0.5 2 180 0
234 1.17 3 0 0
235 2.5 2 180 1
236 0 1 0 1
237 0 1 0 1
238 1.4 2 180 1
239 1 2 180 1
240 1 2 180 1
241 0.4 2 180 1
242 0.14 3 0 1
243 0.14 3 0 1
244 1.17 3 180 0
245 0.2 3 0 1
246 0.2 3 0 1
247 0.2 3 0 1
248 0.2 3 0 1
249 0.14 3 0 1
250 0.14 3 0 1
251 0.16 3 0 1
252 0.14 3 0 1
253 0.14 3 0 1
254 0 3 180 1
255 0.2 3 0 1
256 0 3 180 1
257 0.05 6 180 1
258 0.19 3 0 1
259 0.2 3 0 1
260 0.2 3 0 1
261 0.19 3 0 1
262 0.19 3 0 1
263 0.19 3 0 1
264 0.01 3 0 1
265 0.19 3 0 1
266 0.65 1 180 1
267 0.16 3 0 1
268 0 6 180 1
269 0.1 3 0 1
270 0.2 3 0 1
271 0.158 3 0 1
272 0.05 6 180 1
273 0.2 3 0 1
274 0.2 3 0 1
275 0.2 3 0 1
276 0.2 3 0 1
277 0.25 2 180 0
278 0.2 3 0 1
279 0.4 1 180 1
280 0.6 2 0 0
281 0.4 1 180 1
282 0.6 2 0 0
283 0.4 1 0 1
284 0.6 2 0 0
285 0 1 0 1
286 0 1 0 1
287 0 1 0 1
288 1.17 3 180 0
289 0.05 6 180 1
290 0.2 3 0 1
291 0.2 3 0 1
292 0.2 3 0 1
293 0.2 3 0 1
294 0 1 0 1
295 0 1 0 1
296 2.25 2 180 1
297 2.4 2 180 1
298 4.2 2 180 1
299 0.24 1 180 1
300 2.4 2 180 1
301 3 2 180 1
302 3 2 180 1
303 0.3 1 0 1
304 -0.3 4 0 0
305 0.4 1 0 1
306 0.3 1 0 1
307 -0.3 4 0 0
308 -0.3 4 0 1
309 0.6 1 0 1
310 0.75 2 180 0
311 0.6 1 0 1
312 0 1 0 1
313 0.05 6 180 1
314 0.09 1 0 1
315 0.19 2 180 0
316 0.17 3 0 0
317 0.18 1 180 1
318 0.19 2 180 0
319 1.46 3 0 0
320 0.34 1 0 1
321 1.35 3 180 0
322 0.5 2 180 0
323 1.43 3 0 0
324 0.2 3 0 1
325 0 1 0 1
326 14 2 180 0
327 0.1 3 0 1
328 0.2 3 0 1
329 1.61 1 180 1
330 1.29 2 180 0
331 0.59 3 180 0
332 0.11 1 0 1
333 0.98 2 180 0
334 1.6 3 180 0
335 0.2 3 0 1
336 0.2 3 0 1
337 0.2 1 180 1
338 0.1 1 180 1
339 0 1 0 1
340 0.2 1 180 1
341 0 1 0 1
342 0.8 3 0 1
343 0.8 3 0 1
344 0 3 180 1
345 0 3 180 1
346 0 6 180 1
347 0 6 180 1
348 0.2 1 180 1
349 0.52 2 180 0
350 1.8 1 0 1
351 1.8 1 0 1
352 1.8 1 0 1
353 1.8 1 0 1
354 0 1 0 1
355 0 1 0 1
356 3.1 2 180 0.5
357 3.1 2 180 1
358 4.2 2 180 1
359 3.1 2 180 1
360 0.29 3 180 0
361 3 2 180 0.5
362 4.2 2 180 1
363 1.07 1 0 1
364 0.24 2 180 0
365 0.17 3 180 0
366 0 6 0 1
367 0.99 2 180 1
368 3 2 180 0.5
369 4 2 180 1
370 3 2 180 1
371 0.14 1 180 1
372 0.2 3 0 1
373 0.52 1 180 1
374 0.62 2 180 0
375 1.58 3 0 0
376 3 2 180 1
377 5 2 180 0
378 0.03 1 0 1
379 0.55 2 0 0
380 0.39 3 180 0
381 0.01 3 0 1
382 0.26 2 180 0
383 3 2 180 1
384 6.5 2 180 0
385 3.1 2 180 0.5
386 4.2 2 180 1
387 3 2 180 0.5
388 4 2 180 1
389 4 2 180 1
390 2.5 2 180 1
391 0.2 2 180 1
392 1.6 3 180 1


 Atoms # full

1 1 24 -0.470000 -74.088585 -49.425377 -3.164362 # 30 
2 1 1 0.310000 -73.189232 -49.392101 -2.655865 # 1 
3 1 6 0.070000 -74.448936 -48.110184 -3.581003 # 14 
4 1 34 0.090000 -73.544121 -47.695721 -3.825423 # 4 
5 1 7 -0.090000 -75.138733 -47.308506 -2.411565 # 15 
6 1 2 0.090000 -74.399658 -47.466831 -1.521499 # 10 
7 1 2 0.090000 -75.156029 -46.212032 -2.691870 # 10 
8 1 21 -0.360000 -77.614777 -47.571171 -2.818295 # 28 
9 1 1 0.320000 -77.563042 -47.231792 -3.717817 # 1 
10 1 10 -0.050000 -76.512039 -47.761894 -2.001436 # 18 
11 1 11 0.250000 -78.698112 -48.009739 -2.069375 # 19 
12 1 37 0.130000 -79.784973 -48.051796 -2.192567 # 6 
13 1 22 -0.700000 -78.321304 -48.573483 -0.944871 # 29 
14 1 10 0.220000 -76.940712 -48.313957 -0.796135 # 18 
15 1 38 0.100000 -76.278542 -48.722897 -0.031392 # 7 
16 1 4 0.510000 -75.350609 -48.227200 -4.827334 # 12 
17 1 29 -0.510000 -75.907150 -47.200279 -5.196766 # 35 
18 2 24 -0.470000 -75.620827 -49.390972 -5.401185 # 30 
19 2 1 0.310000 -75.120476 -50.201817 -4.992516 # 1 
20 2 6 0.070000 -76.575302 -49.627144 -6.466487 # 14 
21 2 34 0.090000 -77.243431 -48.817436 -6.547498 # 4 
22 2 8 -0.180000 -75.864113 -50.006447 -7.799623 # 16 
23 2 2 0.090000 -75.231895 -50.855831 -7.796583 # 10 
24 2 2 0.090000 -76.604256 -50.173565 -8.579232 # 10 
25 2 7 -0.280000 -75.049904 -48.739719 -8.312188 # 15 
26 2 2 0.090000 -75.836342 -48.005344 -8.502292 # 10 
27 2 2 0.090000 -74.310020 -48.472664 -7.600471 # 10 
28 2 18 0.620000 -74.439804 -49.243576 -9.627298 # 25 
29 2 30 -0.760000 -73.351212 -48.695148 -10.042119 # 36 
30 2 30 -0.760000 -75.280869 -49.569393 -10.485286 # 36 
31 2 4 0.510000 -77.370232 -50.751495 -5.970104 # 12 
32 2 29 -0.510000 -77.838501 -50.700020 -4.883999 # 35 
33 3 24 -0.470000 -77.898544 -51.683617 -6.836470 # 30 
34 3 1 0.310000 -77.538651 -51.440922 -7.692399 # 1 
35 3 6 0.070000 -77.833893 -53.130524 -6.588650 # 14 
36 3 34 0.090000 -77.662491 -53.136929 -5.541900 # 4 
37 3 6 -0.090000 -79.140648 -53.872681 -6.964689 # 14 
38 3 40 0.090000 -79.256119 -53.915497 -8.075572 # 9 
39 3 9 -0.270000 -79.147629 -55.251156 -6.389451 # 17 
40 3 3 0.090000 -79.188576 -55.334396 -5.303226 # 11 
41 3 3 0.090000 -80.084854 -55.651428 -6.709640 # 11 
42 3 3 0.090000 -78.217186 -55.785393 -6.739468 # 11 
43 3 9 -0.270000 -80.392426 -52.987137 -6.626809 # 17 
44 3 3 0.090000 -81.343140 -53.323624 -7.054606 # 11 
45 3 3 0.090000 -80.383102 -52.828938 -5.500079 # 11 
46 3 3 0.090000 -80.340210 -51.992611 -7.131763 # 11 
47 3 4 0.510000 -76.599998 -53.677567 -7.324785 # 12 
48 3 29 -0.510000 -76.316231 -52.987892 -8.291505 # 35 
49 4 20 -0.290000 -75.616234 -54.246964 -6.622213 # 27 
50 4 17 0.000000 -75.873436 -55.189384 -5.499935 # 24 
51 4 2 0.090000 -76.414337 -56.126904 -5.889548 # 10 
52 4 2 0.090000 -76.264893 -54.867332 -4.536495 # 10 
53 4 15 0.020000 -74.303848 -53.720005 -6.633296 # 22 
54 4 34 0.090000 -74.250145 -52.686306 -6.746530 # 4 
55 4 16 -0.180000 -73.735008 -54.268936 -5.350744 # 23 
56 4 2 0.090000 -73.972878 -53.553398 -4.551027 # 10 
57 4 2 0.090000 -72.605942 -54.381058 -5.317780 # 10 
58 4 16 -0.180000 -74.448486 -55.584511 -5.070919 # 23 
59 4 2 0.090000 -74.388962 -56.047928 -4.051029 # 10 
60 4 2 0.090000 -74.045883 -56.406773 -5.735594 # 10 
61 4 4 0.510000 -73.295433 -54.285633 -7.711215 # 12 
62 4 29 -0.510000 -73.511589 -55.378841 -8.203551 # 35 
63 5 20 -0.290000 -72.036957 -53.736073 -7.849919 # 27 
64 5 17 0.000000 -72.001678 -52.327343 -7.723999 # 24 
65 5 2 0.090000 -72.035606 -52.068954 -6.598250 # 10 
66 5 2 0.090000 -72.811684 -51.825493 -8.298280 # 10 
67 5 15 0.020000 -70.908875 -54.330959 -8.549068 # 22 
68 5 34 0.090000 -71.352760 -54.633049 -9.550931 # 4 
69 5 16 -0.180000 -69.897858 -53.110435 -8.454533 # 23 
70 5 2 0.090000 -69.290115 -53.124874 -9.366838 # 10 
71 5 2 0.090000 -69.170624 -53.264992 -7.601668 # 10 
72 5 16 -0.180000 -70.698372 -51.844585 -8.316235 # 23 
73 5 2 0.090000 -70.946175 -51.374378 -9.329995 # 10 
74 5 2 0.090000 -70.199211 -51.176876 -7.616295 # 10 
75 5 4 0.510000 -70.285446 -55.640629 -8.004688 # 12 
76 5 29 -0.510000 -69.065468 -55.821426 -8.161562 # 35 
77 6 24 -0.470000 -71.110558 -56.573627 -7.497580 # 30 
78 6 1 0.310000 -72.067635 -56.291134 -7.517641 # 1 
79 6 6 0.070000 -70.804420 -57.994415 -7.410201 # 14 
80 6 34 0.090000 -69.804756 -58.151867 -7.389877 # 4 
81 6 7 -0.180000 -71.406235 -58.567577 -6.062846 # 15 
82 6 2 0.090000 -70.840485 -57.935661 -5.348207 # 10 
83 6 2 0.090000 -72.500076 -58.360287 -6.002997 # 10 
84 6 5 0.000000 -71.153625 -60.064331 -5.710314 # 13 
85 6 5 -0.115000 -72.216110 -60.953762 -5.412772 # 13 
86 6 23 0.115000 -73.185165 -60.498253 -5.313639 # 3 
87 6 5 -0.115000 -71.938141 -62.303864 -5.007934 # 13 
88 6 23 0.115000 -72.614838 -63.021538 -4.566180 # 3 
89 6 5 -0.115000 -70.639526 -62.724350 -4.864607 # 13 
90 6 23 0.115000 -70.424881 -63.777763 -4.557802 # 3 
91 6 5 -0.115000 -69.851120 -60.511932 -5.592030 # 13 
92 6 23 0.115000 -69.097755 -59.799911 -5.728532 # 3 
93 6 5 -0.115000 -69.587440 -61.836544 -5.129259 # 13 
94 6 23 0.115000 -68.599655 -62.132854 -4.889721 # 3 
95 6 4 0.510000 -71.271034 -58.802372 -8.614448 # 12 
96 6 29 -0.510000 -72.329201 -58.484089 -9.138576 # 35 
97 7 24 -0.470000 -70.459946 -59.695702 -9.224542 # 30 
98 7 1 0.310000 -69.766479 -60.194405 -8.709367 # 1 
99 7 6 0.070000 -70.739372 -60.067970 -10.614199 # 14 
100 7 34 0.090000 -70.873009 -59.116508 -11.082477 # 4 
101 7 7 -0.180000 -69.579445 -60.785267 -11.357204 # 15 
102 7 2 0.090000 -69.159859 -61.481228 -10.609865 # 10 
103 7 2 0.090000 -69.883255 -61.257607 -12.311907 # 10 
104 7 5 0.000000 -68.684799 -59.700340 -11.677514 # 13 
105 7 5 -0.115000 -68.569893 -59.246964 -12.984436 # 13 
106 7 23 0.115000 -69.158180 -59.722694 -13.771395 # 3 
107 7 5 -0.115000 -67.741722 -58.189030 -13.294092 # 13 
108 7 23 0.115000 -67.716125 -57.712799 -14.279316 # 3 
109 7 5 -0.115000 -66.942741 -57.627171 -12.281863 # 13 
110 7 23 0.115000 -66.264542 -56.872833 -12.461816 # 3 
111 7 5 -0.115000 -67.803185 -59.201004 -10.714672 # 13 
112 7 23 0.115000 -67.874916 -59.479870 -9.711373 # 3 
113 7 5 -0.115000 -66.912369 -58.150108 -10.997444 # 13 
114 7 23 0.115000 -66.315849 -57.690697 -10.254702 # 3 
115 7 4 0.510000 -72.041725 -60.818794 -10.816439 # 12 
116 7 29 -0.510000 -72.529289 -61.475067 -9.913422 # 35 
117 8 24 -0.470000 -72.719185 -60.802845 -11.929284 # 30 
118 8 1 0.310000 -72.382355 -60.232327 -12.695943 # 1 
119 8 6 0.070000 -74.077805 -61.289623 -12.103659 # 14 
120 8 34 0.090000 -74.593620 -61.701195 -11.261759 # 4 
121 8 8 -0.280000 -75.065208 -60.047626 -12.370583 # 16 
122 8 2 0.090000 -75.885971 -59.938271 -11.625781 # 10 
123 8 2 0.090000 -74.488068 -59.098305 -12.409460 # 10 
124 8 18 0.620000 -75.771004 -60.007957 -13.729117 # 25 
125 8 30 -0.760000 -75.044701 -59.806690 -14.743166 # 36 
126 8 30 -0.760000 -76.748329 -60.797321 -13.731991 # 36 
127 8 4 0.510000 -73.962570 -62.464951 -13.135038 # 12 
128 8 29 -0.510000 -73.954170 -63.645176 -12.837400 # 35 
129 9 24 -0.470000 -73.370827 -62.071842 -14.317380 # 30 
130 9 1 0.310000 -73.523605 -61.131298 -14.579109 # 1 
131 9 6 0.070000 -72.656448 -63.001076 -15.188917 # 14 
132 9 34 0.090000 -73.095406 -63.982040 -15.099886 # 4 
133 9 7 -0.180000 -72.704758 -62.533756 -16.679790 # 15 
134 9 2 0.090000 -73.692329 -62.653786 -17.159252 # 10 
135 9 2 0.090000 -72.477905 -61.423595 -16.825760 # 10 
136 9 6 -0.090000 -71.784386 -63.268887 -17.677629 # 14 
137 9 40 0.090000 -70.803864 -63.104530 -17.396669 # 9 
138 9 9 -0.270000 -71.915283 -64.857162 -17.708296 # 17 
139 9 3 0.090000 -72.999550 -65.183235 -17.821409 # 11 
140 9 3 0.090000 -71.386703 -65.295723 -18.626539 # 11 
141 9 3 0.090000 -71.467598 -65.405457 -16.857288 # 11 
142 9 9 -0.270000 -71.807594 -62.666466 -19.153469 # 17 
143 9 3 0.090000 -71.460297 -61.588448 -19.076982 # 11 
144 9 3 0.090000 -71.015480 -63.168816 -19.756836 # 11 
145 9 3 0.090000 -72.905014 -62.711166 -19.539921 # 11 
146 9 4 0.510000 -71.245628 -63.209122 -14.755998 # 12 
147 9 29 -0.510000 -70.386848 -62.358727 -15.050140 # 35 
148 10 24 -0.470000 -71.021423 -64.151291 -13.811374 # 30 
149 10 1 0.310000 -71.591293 -64.940277 -13.803426 # 1 
150 10 6 0.070000 -69.647102 -64.332588 -13.183923 # 14 
151 10 34 0.090000 -69.374855 -63.399334 -12.768670 # 4 
152 10 7 -0.180000 -69.491890 -65.341431 -12.005363 # 15 
153 10 2 0.090000 -69.895531 -66.410034 -12.298908 # 10 
154 10 2 0.090000 -68.397667 -65.534531 -11.845951 # 10 
155 10 7 -0.180000 -70.025063 -64.942543 -10.677040 # 15 
156 10 2 0.090000 -69.533005 -65.602707 -9.936571 # 10 
157 10 2 0.090000 -69.766975 -63.917381 -10.430895 # 10 
158 10 7 -0.180000 -71.533379 -65.109528 -10.643740 # 15 
159 10 2 0.090000 -71.950989 -64.248596 -11.178809 # 10 
160 10 2 0.090000 -71.849373 -66.060486 -11.161883 # 10 
161 10 7 0.210000 -72.146698 -64.881142 -9.263970 # 15 
162 10 2 0.050000 -71.962173 -65.776482 -8.664409 # 10 
163 10 2 0.050000 -71.735146 -63.968979 -8.888145 # 10 
164 10 26 -0.300000 -73.613716 -64.714783 -9.388982 # 32 
165 10 12 0.330000 -74.070679 -64.401138 -10.282926 # 2 
166 10 12 0.330000 -74.105408 -65.652054 -9.185856 # 2 
167 10 12 0.330000 -73.923912 -63.937965 -8.760573 # 2 
168 10 4 0.510000 -68.648384 -64.711891 -14.333539 # 12 
169 10 29 -0.510000 -69.104240 -65.415627 -15.285256 # 35 
170 11 20 -0.290000 -67.570633 -63.894653 -14.555074 # 27 
171 11 17 0.000000 -66.996185 -63.037109 -13.462936 # 24 
172 11 2 0.090000 -67.026825 -63.634121 -12.512376 # 10 
173 11 2 0.090000 -67.478607 -62.019104 -13.410197 # 10 
174 11 15 0.020000 -66.706169 -63.810528 -15.733135 # 22 
175 11 34 0.090000 -67.370796 -63.272900 -16.422461 # 4 
176 11 16 -0.180000 -65.491180 -62.915565 -15.340180 # 23 
177 11 2 0.090000 -65.689522 -61.840939 -15.684314 # 10 
178 11 2 0.090000 -64.513779 -63.219795 -15.778666 # 10 
179 11 16 -0.180000 -65.462318 -62.964916 -13.782766 # 23 
180 11 2 0.090000 -64.829933 -62.136875 -13.324303 # 10 
181 11 2 0.090000 -65.096199 -63.980034 -13.504566 # 10 
182 11 4 0.510000 -66.474449 -65.128113 -16.367327 # 12 
183 11 29 -0.510000 -65.984390 -66.058723 -15.723713 # 35 
184 12 24 -0.470000 -66.686890 -65.349716 -17.729889 # 30 
185 12 1 0.310000 -67.180237 -64.664055 -18.297228 # 1 
186 12 6 0.070000 -66.146278 -66.421707 -18.552805 # 14 
187 12 34 0.090000 -65.486778 -67.110008 -18.037846 # 4 
188 12 6 -0.090000 -67.310730 -67.422638 -18.927025 # 14 
189 12 40 0.090000 -66.894295 -68.130775 -19.652843 # 9 
190 12 9 -0.270000 -67.839165 -68.184006 -17.680191 # 17 
191 12 3 0.090000 -68.259583 -67.601173 -16.898823 # 11 
192 12 3 0.090000 -68.544434 -68.950150 -18.030926 # 11 
193 12 3 0.090000 -66.878731 -68.752518 -17.359859 # 11 
194 12 9 -0.270000 -68.376282 -66.558693 -19.611547 # 17 
195 12 3 0.090000 -68.081863 -66.125397 -20.591698 # 11 
196 12 3 0.090000 -69.188225 -67.273727 -19.935781 # 11 
197 12 3 0.090000 -68.707390 -65.824944 -18.885513 # 11 
198 12 4 0.510000 -65.393997 -65.905678 -19.810556 # 12 
199 12 29 -0.510000 -65.633430 -64.790115 -20.302917 # 35 
200 13 24 -0.470000 -64.261002 -66.608040 -20.137472 # 30 
201 13 1 0.310000 -63.873306 -67.315292 -19.523067 # 1 
202 13 6 0.070000 -63.616390 -66.558563 -21.373606 # 14 
203 13 34 0.090000 -63.646362 -65.560272 -21.680555 # 4 
204 13 7 0.050000 -62.094257 -66.744392 -21.249720 # 15 
205 13 2 0.090000 -61.572403 -66.452347 -22.146919 # 10 
206 13 2 0.090000 -61.760380 -66.068649 -20.430490 # 10 
207 13 31 -0.660000 -61.766628 -68.132149 -20.984711 # 37 
208 13 1 0.430000 -61.196110 -68.441902 -21.721899 # 1 
209 13 4 0.510000 -64.179550 -67.280136 -22.546923 # 12 
210 13 29 -0.510000 -64.791183 -68.396072 -22.535526 # 35 
211 14 24 -0.470000 -63.654667 -66.712997 -23.654093 # 30 
212 14 1 0.310000 -63.316841 -65.780998 -23.617849 # 1 
213 14 6 0.070000 -63.868885 -67.123184 -24.990582 # 14 
214 14 34 0.090000 -64.383331 -68.109680 -25.008463 # 4 
215 14 6 -0.090000 -64.691734 -66.125145 -25.808661 # 14 
216 14 40 0.090000 -64.172859 -65.125603 -25.793652 # 9 
217 14 9 -0.270000 -64.878952 -66.647705 -27.190130 # 17 
218 14 3 0.090000 -65.901306 -67.216728 -27.182278 # 11 
219 14 3 0.090000 -65.036674 -65.867760 -27.946327 # 11 
220 14 3 0.090000 -64.096420 -67.294693 -27.562101 # 11 
221 14 9 -0.270000 -66.061844 -66.036003 -25.084448 # 17 
222 14 3 0.090000 -65.934685 -65.705170 -24.035017 # 11 
223 14 3 0.090000 -66.762756 -65.305397 -25.582649 # 11 
224 14 3 0.090000 -66.592407 -67.021233 -25.090288 # 11 
225 14 4 0.510000 -62.475399 -67.306122 -25.489119 # 12 
226 14 29 -0.510000 -61.806370 -66.363075 -25.936474 # 35 
227 15 24 -0.470000 -61.951862 -68.493126 -25.399584 # 30 
228 15 1 0.310000 -62.475304 -69.115883 -24.838543 # 1 
229 15 6 0.070000 -60.659420 -68.835640 -25.973028 # 14 
230 15 34 0.090000 -60.051807 -67.998817 -25.924072 # 4 
231 15 8 -0.280000 -59.903805 -69.766891 -25.035540 # 16 
232 15 2 0.090000 -60.348564 -70.716209 -24.810436 # 10 
233 15 2 0.090000 -58.897259 -69.851135 -25.569771 # 10 
234 15 18 0.620000 -59.448521 -69.151787 -23.682941 # 25 
235 15 30 -0.760000 -60.415680 -68.687363 -23.054461 # 36 
236 15 30 -0.760000 -58.603058 -69.958862 -23.148542 # 36 
237 15 4 0.510000 -60.765263 -69.212433 -27.435101 # 12 
238 15 29 -0.510000 -61.718769 -69.865196 -27.807909 # 35 
239 16 24 -0.470000 -59.858597 -68.832756 -28.333092 # 30 
240 16 1 0.310000 -59.126381 -68.163162 -28.071146 # 1 
241 16 6 0.070000 -60.251331 -68.968353 -29.747644 # 14 
242 16 34 0.090000 -61.302166 -69.036026 -29.826502 # 4 
243 16 7 -0.180000 -59.633308 -67.733894 -30.403320 # 15 
244 16 2 0.090000 -58.522907 -67.856430 -30.414978 # 10 
245 16 2 0.090000 -59.926517 -67.619133 -31.478247 # 10 
246 16 6 -0.090000 -60.016247 -66.328926 -29.827866 # 14 
247 16 40 0.090000 -59.682610 -66.316238 -28.715858 # 9 
248 16 9 -0.270000 -59.249966 -65.224289 -30.434250 # 17 
249 16 3 0.090000 -58.161709 -65.321968 -30.119711 # 11 
250 16 3 0.090000 -59.404968 -65.082527 -31.497972 # 11 
251 16 3 0.090000 -59.547291 -64.261024 -30.052298 # 11 
252 16 9 -0.270000 -61.534504 -66.167839 -29.746233 # 17 
253 16 3 0.090000 -62.135704 -67.077606 -29.369930 # 11 
254 16 3 0.090000 -61.778267 -65.393784 -29.138844 # 11 
255 16 3 0.090000 -62.015408 -65.828087 -30.705914 # 11 
256 16 4 0.510000 -59.743408 -70.258820 -30.335403 # 12 
257 16 29 -0.510000 -59.335274 -70.281418 -31.486097 # 35 
258 17 24 -0.470000 -60.253128 -71.309456 -29.749464 # 30 
259 17 1 0.310000 -60.980309 -71.098274 -29.084524 # 1 
260 17 6 0.070000 -60.042484 -72.731377 -30.117172 # 14 
261 17 34 0.090000 -60.659065 -73.412262 -29.538223 # 4 
262 17 9 -0.270000 -60.610947 -73.016136 -31.523348 # 17 
263 17 3 0.090000 -61.715622 -72.618126 -31.400826 # 11 
264 17 3 0.090000 -60.130039 -72.431549 -32.333672 # 11 
265 17 3 0.090000 -60.656769 -74.054604 -31.779905 # 11 
266 17 4 0.510000 -58.695229 -73.322617 -29.957642 # 12 
267 17 29 -0.510000 -58.465115 -73.971489 -28.906895 # 35 
268 18 24 -0.470000 -57.780708 -73.013374 -30.849838 # 30 
269 18 1 0.310000 -57.971836 -72.443733 -31.607111 # 1 
270 18 6 0.070000 -56.373100 -73.465004 -30.692532 # 14 
271 18 34 0.090000 -56.286633 -74.522430 -30.231197 # 4 
272 18 7 -0.180000 -55.626049 -73.557915 -32.026554 # 15 
273 18 2 0.090000 -54.689102 -74.166107 -31.962708 # 10 
274 18 2 0.090000 -56.263378 -74.102951 -32.723595 # 10 
275 18 6 -0.090000 -55.280087 -72.221367 -32.675884 # 14 
276 18 40 0.090000 -55.280087 -71.326538 -31.996389 # 9 
277 18 9 -0.270000 -53.844872 -72.262177 -33.252945 # 17 
278 18 3 0.090000 -53.817429 -73.165924 -33.792538 # 11 
279 18 3 0.090000 -53.589539 -71.405510 -33.856934 # 11 
280 18 3 0.090000 -53.080242 -72.497467 -32.453514 # 11 
281 18 9 -0.270000 -56.334965 -71.871574 -33.760002 # 17 
282 18 3 0.090000 -57.355114 -71.960724 -33.271114 # 11 
283 18 3 0.090000 -56.284786 -70.857590 -34.188995 # 11 
284 18 3 0.090000 -56.193943 -72.479515 -34.625580 # 11 
285 18 4 0.510000 -55.612400 -72.634201 -29.637501 # 12 
286 18 29 -0.510000 -56.158009 -71.688889 -29.063721 # 35 
287 19 24 -0.470000 -54.316902 -72.947716 -29.444117 # 30 
288 19 1 0.310000 -53.856865 -73.645805 -29.973370 # 1 
289 19 7 -0.020000 -53.393253 -72.469093 -28.458176 # 15 
290 19 36 0.090000 -52.628815 -73.238876 -28.478666 # 5 
291 19 36 0.090000 -53.851021 -72.470856 -27.544697 # 5 
292 19 4 0.510000 -52.715710 -71.093132 -28.543974 # 12 
293 19 29 -0.510000 -51.689953 -70.856583 -27.935482 # 35 
294 20 24 -0.470000 -53.501556 -70.014107 -28.940481 # 30 
295 20 1 0.310000 -54.434078 -70.042984 -29.115717 # 1 
296 20 6 0.070000 -53.022404 -68.619812 -28.880251 # 14 
297 20 34 0.090000 -51.970482 -68.678696 -28.513380 # 4 
298 20 8 -0.180000 -52.883224 -68.019653 -30.282307 # 16 
299 20 2 0.090000 -53.878746 -68.102898 -30.785751 # 10 