LAMMPS data file via write_data, version 30 Jul 2016, timestep = 1002258

5828 atoms
40 atom types
5882 bonds
73 bond types
10665 angles
164 angle types
18511 dihedrals
392 dihedral types

-9.1443200000000004e+01 -3.2587000000000003e+01 xlo xhi
-1.7315242599999999e+02 -4.7596853000000003e+01 ylo yhi
-4.4625599999999999e+01 2.7593100000000000e+01 zlo zhi

Masses

1 1.008
2 1.008
3 1.008
4 12.011
5 12.011
6 12.011
7 12.011
8 12.011
9 12.011
10 12.011
11 12.011
12 1.008
13 12.011
14 12.011
15 12.011
16 12.011
17 12.011
18 12.011
19 12.011
20 14.007
21 14.007
22 14.007
23 1.008
24 14.007
25 14.007
26 14.007
27 14.007
28 14.007
29 15.999
30 15.999
31 15.999
32 32.06
33 32.06
34 1.008
35 22.98
36 1.008
37 1.008
38 1.008
39 1.008
40 1.008

Pair Coeffs # lj/charmm/coul/charmm

1 0.046 0.400014 0.046 0.400014
2 0.034 2.38761 0.034 2.38761
3 0.024 2.38761 0.024 2.38761
4 0.11 3.56359 0.11 3.56359
5 0.07 3.55005 0.07 3.55005
6 0.032 3.56359 0.01 3.38542
7 0.056 3.58141 0.01 3.38542
8 0.056 3.58141 0.01 3.38542
9 0.078 3.63487 0.01 3.38542
10 0.05 3.20724 0.05 3.20724
11 0.05 3.20724 0.05 3.20724
12 0.046 0.400014 0.046 0.400014
13 0.099 3.31414 0.099 3.31414
14 0.073 3.54578 0.073 3.54578
15 0.02 4.05359 0.01 3.38542
16 0.055 3.87541 0.01 3.38542
17 0.055 3.87541 0.01 3.38542
18 0.07 3.56359 0.07 3.56359
19 0.073 3.54578 0.073 3.54578
20 0.2 3.29633 0.0001 3.29633
21 0.2 3.29633 0.2 3.29633
22 0.2 3.29633 0.2 3.29633
23 0.03 2.42004 0.03 2.42004
24 0.2 3.29633 0.2 2.76179
25 0.2 3.29633 0.2 3.29633
26 0.2 3.29633 0.2 3.29633
27 0.2 3.29633 0.2 3.29633
28 0.2 3.29633 0.2 3.29633
29 0.12 3.02906 0.12 2.49452
30 0.12 3.02906 0.12 3.02906
31 0.1521 3.15378 0.1521 3.15378
32 0.45 3.56359 0.45 3.56359
33 0.38 3.51905 0.38 3.51905
34 0.022 2.35197 0.022 2.35197
35 0.5 3.144 0.5 3.144
36 0.028 2.38761 0.028 2.38761
37 0.046 1.60362 0.046 1.60362
38 0.0078 2.61568 0.0078 2.61568
39 0.1 0.801809 0.1 0.801809
40 0.045 2.38761 0.045 2.38761

Bond Coeffs # harmonic

1 250 1.49
2 230 1.49
3 350 1.365
4 340 1.08
5 270 1.37
6 334.3 1.411
7 300 1.36
8 340 1.08
9 200 1.522
10 200 1.522
11 200 1.522
12 250 1.49
13 430 1.36
14 650 1.23
15 525 1.26
16 222.5 1.527
17 330 1.08
18 320 1.434
19 222.5 1.537
20 222.5 1.537
21 309 1.111
22 309 1.111
23 250 1.49
24 320 1.455
25 410 1.36
26 229.63 1.5
27 365 1.083
28 400 1.38
29 400 1.38
30 340 1.09
31 400 1.36
32 400 1.32
33 360 1.385
34 260 1.3
35 350 1.43
36 270 1.37
37 222.5 1.5
38 222.5 1.538
39 222.5 1.538
40 222.5 1.538
41 309 1.111
42 330 1.08
43 320 1.43
44 428 1.42
45 450 1.365
46 222.5 1.53
47 222.5 1.53
48 222.5 1.528
49 375 1.492
50 309 1.111
51 330 1.08
52 390 1.49
53 320 1.43
54 200 1.48
55 428 1.42
56 370 1.345
57 198 1.818
58 214 1.816
59 309 1.111
60 322 1.111
61 240 1.816
62 440 0.997
63 480 1
64 466 1
65 537.5 0.976
66 545 0.96
67 620 1.23
68 455 1
69 403 1.04
70 275 1.325
71 173 2.029
72 305 1.375
73 305 1.375

Angle Coeffs # charmm

1 52 112.3 0 0
2 50 109.5 0 0
3 50 116.5 50 2.45
4 15 121 50 2.44
5 40 118 50 2.388
6 45.8 124 0 0
7 53.35 114 8 2.561
8 34.5 110.1 22.53 2.179
9 35 111 0 0
10 70 113.5 0 0
11 58.35 113.6 11.16 2.561
12 26.5 110.1 22.53 2.179
13 50 107 0 0
14 67.7 107.5 0 0
15 67.7 110 0 0
16 58 114.5 0 0
17 26.5 110.1 22.53 2.179
18 34.6 110.1 22.53 2.179
19 40.4 120 0 0
20 35 117 0 0
21 30 109.5 20 2.074
22 57.5 106 0 0
23 34 95 0 0
24 60 117 0 0
25 38.8 95 0 0
26 72.5 103.3 0 0
27 40 118 50 2.388
28 35 111 0 0
29 70 113.5 0 0
30 26.5 110.1 22.53 2.179
31 53.35 114 8 2.561
32 34.5 110.1 22.53 2.179
33 35 111 0 0
34 70 113.5 0 0
35 60 117 0 0
36 75.7 110.1 0 0
37 34.6 110.1 22.53 2.179
38 32 125 25 2.173
39 85 110.5 25 2.24
40 55 109.5 0 0
41 23 120 0 0
42 45.9 108.89 0 0
43 35.5 109 5.4 1.802
44 35.5 109 5.4 1.802
45 48 108 0 0
46 62.3 120 0 0
47 35.5 109 5.4 1.802
48 56.5 107.5 0 0
49 45 107.5 35 2.101
50 45.9 108.89 0 0
51 46.1 111.3 0 0
52 38 111 0 0
53 35.5 109 5.4 1.802
54 35.5 108.4 5.4 1.802
55 46.1 111.3 0 0
56 48 112 0 0
57 49 120 0 0
58 48 108 0 0
59 36 115 0 0
60 48 108 0 0
61 25 120 0 0
62 44 109.5 0 0
63 32 125 25 2.177
64 25 122.5 20 2.14
65 25 125 20 2.12
66 25 120 20 2.14
67 80 122.5 0 0
68 50 120 0 0
69 40 120 70 2.31
70 80 122.5 0 0
71 75 122.5 50 2.37
72 130 112.5 0 0
73 100 124 70 2.225
74 50 120 0 0
75 34 123 0 0
76 40 120 35 2.4162
77 50 112 0 0
78 40 120 35 2.4162
79 45.8 122.3 0 0
80 30 120 22 2.1525
81 45.2 120 0 0
82 50 113.2 0 0
83 30 120 22 2.1525
84 51.8 107.5 0 0
85 49.3 107.5 0 0
86 85 106.4 25 2.261
87 30 127 0 0
88 50 108.2 0 0
89 85 112 0 0
90 28 126 0 0
91 65 108 0 0
92 30 120 22 2.1525
93 50 110 0 0
94 130 133.5 0 0
95 130 129.5 0 0
96 52 108 0 0
97 50 109.5 0 0
98 50 107 0 0
99 52 108 0 0
100 52 108 0 0
101 52 108 0 0
102 52 108 0 0
103 33 109.5 30 2.163
104 52 108 0 0
105 33 109.5 30 2.163
106 50 120 0 0
107 20 112.5 0 0
108 80 116.5 0 0
109 80 118 0 0
110 52 108 0 0
111 70 108.5 0 0
112 33.43 110.1 22.53 2.179
113 100 114.2 0 0
114 35 118 0 0
115 70 110.8 0 0
116 70 108.5 0 0
117 26.5 110.1 22.53 2.179
118 26.5 110.1 22.53 2.179
119 70 110.5 0 0
120 26.5 110.1 22.53 2.179
121 52 108 0 0
122 45.8 130 0 0
123 25 130 20 2.2
124 130 106 0 0
125 130 110 0 0
126 58.35 113 0 0
127 33.43 109.5 0 0
128 130 107.5 0 0
129 30 125.5 20 2.15
130 130 104 0 0
131 30 127 20 2.14
132 52 108 0 0
133 30 122 22 2.146
134 85 108 0 0
135 95 107.4 0 0
136 30 126.7 0 0
137 28 126 0 0
138 20 112.5 0 0
139 80 116.5 0 0
140 80 121 0 0
141 40 118 50 2.388
142 53.35 111 8 2.561
143 50 109.5 0 0
144 53.35 108.5 8 2.561
145 34.5 110.1 22.53 2.179
146 35 111 0 0
147 70 113.5 0 0
148 75.7 110.1 0 0
149 58.35 113.5 11.16 2.561
150 58.35 113.5 11.16 2.561
151 58.35 113.5 11.16 2.561
152 58.35 114 0 0
153 26.5 110.1 22.53 2.179
154 50 107 0 0
155 75.7 110.1 0 0
156 58 112.5 0 0
157 58 112.5 0 0
158 58.35 113.5 11.16 2.561
159 26.5 110.1 22.53 2.179
160 33.43 110.1 22.53 2.179
161 35 117 0 0
162 57.5 106 0 0
163 80 116.5 0 0
164 80 121 0 0

Dihedral Coeffs # charmm

1 0.14 3 0 1
2 0.33 3 180 0
3 0.2 3 0 1
4 0 1 0 1
5 0.2 3 0 1
6 0.28 1 180 1
7 0.5 2 180 0
8 0.38 3 0 0
9 1.84 1 180 1
10 0.84 2 180 0
11 0.39 3 180 0
12 0.19 3 0 1
13 0.2 3 0 1
14 0 1 180 1
15 0.38 2 180 0
16 0.59 3 180 0
17 0.19 3 0 1
18 0.2 3 0 1
19 0.68 1 180 1
20 0.1 2 180 0
21 0.38 3 0 0
22 2.75 2 180 1
23 0.3 4 0 0
24 0.79 1 180 1
25 2.75 2 180 1
26 0.3 4 0 0
27 1.6 1 0 1
28 2.5 2 180 0
29 1.6 1 0 1
30 2.5 2 180 0
31 2.5 2 180 1
32 0.16 3 0 0
33 0.16 3 0 1
34 2.75 2 180 1
35 0.39 2 180 0
36 0.3 4 0 0
37 2.75 2 180 1
38 0.3 4 0 0
39 0.1 3 0 0
40 0.1 3 0 1
41 0.4 1 0 1
42 0.6 2 0 0
43 0.4 1 0 1
44 0.6 2 0 0
45 0.4 1 180 1
46 0.99 3 180 0
47 0.6 2 0 0
48 0.1 3 0 0
49 0.14 3 0 1
50 0.14 3 0 0
51 0.14 3 0 1
52 0.14 3 0 0
53 0.16 3 0 1
54 2.75 2 180 1
55 0.3 4 0 0
56 2.75 2 180 1
57 1.28 1 180 1
58 0.3 4 0 0
59 0.1 3 0 1
60 1.74 1 0 1
61 0.15 2 0 0
62 0.77 3 180 0
63 0 3 0 1
64 14 2 180 0
65 1 2 180 1
66 14 2 180 0
67 0.2 3 0 1
68 0.94 2 180 0
69 0 1 0 1
70 0.9 3 0 0
71 3 2 180 1
72 14 2 180 0
73 3 2 180 1
74 14 2 180 0
75 3 2 180 1
76 3 2 180 1
77 3 2 180 1
78 1.57 3 180 0
79 3 2 180 1
80 3 2 180 1
81 0.85 2 180 1
82 2.8 2 180 1
83 5 2 180 0
84 0.36 1 180 1
85 0.05 2 0 0
86 0.19 3 180 0
87 0.2 3 0 1
88 6 2 180 0
89 1.41 1 180 1
90 2.6 2 180 1
91 1.6 1 0 1
92 2.5 2 180 0
93 1.6 1 0 1
94 2.5 2 180 0
95 2.5 2 180 1
96 0 1 0 1
97 0 1 0 1
98 1.4 1 0 1
99 0.38 1 180 1
100 1.29 2 180 0
101 0.13 2 180 0
102 0.29 3 180 0
103 0.2 3 0 1
104 0.2 3 0 1
105 0 1 0 1
106 0.18 1 0 1
107 0.06 2 0 0
108 0.25 3 0 0
109 0.62 1 180 1
110 0.66 2 180 0
111 0.14 3 0 1
112 0.59 3 180 0
113 0.72 3 180 0
114 0.42 1 180 1
115 0.15 2 180 0
116 0.95 3 180 0
117 1.49 1 0 1
118 0.09 2 180 0
119 0.79 3 180 0
120 0.05 1 0 1
121 0.1 2 180 0
122 0.01 3 180 0
123 0.18 1 180 1
124 0.2 3 0 1
125 0.2 3 0 1
126 0.48 1 180 1
127 0.42 2 180 0
128 0.65 3 0 0
129 0.63 1 180 1
130 0.01 2 0 0
131 0.15 3 0 0
132 0.19 3 0 1
133 0.14 1 180 1
134 0.64 2 180 0
135 0.54 2 0 0
136 0.69 3 0 0
137 0.16 3 0 1
138 0.02 1 0 1
139 0.56 2 0 0
140 0.49 3 0 0
141 0.2 1 0 1
142 0.65 2 0 0
143 0.22 3 0 0
144 0.31 3 0 1
145 0.87 3 180 0
146 0.84 1 0 1
147 0.98 2 180 0
148 1.46 3 0 0
149 0.19 3 0 1
150 1.6 1 0 1
151 2.5 2 180 0
152 2.5 2 180 1
153 1.6 1 0 1
154 2.5 2 180 0
155 2.5 2 180 1
156 0.32 1 180 1
157 4.2 2 180 1
158 1.4 2 180 1
159 2 2 180 1
160 3 2 180 1
161 1 2 180 1
162 0 1 0 1
163 0 1 0 1
164 1.4 1 0 1
165 0.2 3 0 1
166 0.12 1 180 1
167 0.61 2 180 0
168 0.36 2 180 0
169 0.41 3 0 0
170 0.2 3 0 1
171 0 1 0 1
172 0.05 6 180 1
173 0.05 6 180 1
174 0.2 3 0 1
175 0.88 1 180 1
176 1.9 3 0 0
177 0.72 3 180 0
178 0.1 2 180 1
179 0.15 4 0 0
180 0.1 6 180 0
181 0.19 3 0 1
182 0.19 3 0 1
183 0.19 3 0 1
184 0 6 180 1
185 0.1 3 0 1
186 0.24 1 180 1
187 0.37 3 0 0
188 0.35 1 180 1
189 0.2 3 0 1
190 0.3 1 0 1
191 0.35 2 0 0
192 1.76 3 0 0
193 1.2 2 180 1
194 2.5 2 180 1
195 2.25 2 180 1
196 2.5 2 180 1
197 0.28 3 0 1
198 1 1 0 1
199 0.42 2 180 0
200 4.1 2 0 0
201 0.9 3 0 0
202 0 1 0 1
203 0 1 0 1
204 1.4 1 0 1
205 0.05 6 180 1
206 0 1 0 1
207 0.05 6 180 1
208 0 1 0 1
209 0 1 0 1
210 1.91 3 180 0
211 1.4 1 0 1
212 0.2 3 0 1
213 0.18 1 0 1
214 0.06 2 0 0
215 0.59 3 0 0
216 0.2 3 0 1
217 0.2 3 0 1
218 0.2 3 0 1
219 0 1 0 1
220 1.33 1 0 1
221 0.8 3 0 1
222 1.09 1 180 1
223 0.18 2 0 0
224 0.32 3 0 0
225 0.2 3 0 1
226 0.28 3 0 1
227 0.05 2 180 1
228 4 2 180 1
229 6.5 2 180 0
230 0.2 3 0 1
231 0.29 1 180 1
232 0.66 2 180 0
233 0.5 2 180 0
234 1.17 3 0 0
235 2.5 2 180 1
236 0 1 0 1
237 0 1 0 1
238 1.4 2 180 1
239 1 2 180 1
240 1 2 180 1
241 0.4 2 180 1
242 0.14 3 0 1
243 0.14 3 0 1
244 1.17 3 180 0
245 0.2 3 0 1
246 0.2 3 0 1
247 0.2 3 0 1
248 0.2 3 0 1
249 0.14 3 0 1
250 0.14 3 0 1
251 0.16 3 0 1
252 0.14 3 0 1
253 0.14 3 0 1
254 0 3 180 1
255 0.2 3 0 1
256 0 3 180 1
257 0.05 6 180 1
258 0.19 3 0 1
259 0.2 3 0 1
260 0.2 3 0 1
261 0.19 3 0 1
262 0.19 3 0 1
263 0.19 3 0 1
264 0.01 3 0 1
265 0.19 3 0 1
266 0.65 1 180 1
267 0.16 3 0 1
268 0 6 180 1
269 0.1 3 0 1
270 0.2 3 0 1
271 0.158 3 0 1
272 0.05 6 180 1
273 0.2 3 0 1
274 0.2 3 0 1
275 0.2 3 0 1
276 0.2 3 0 1
277 0.25 2 180 0
278 0.2 3 0 1
279 0.4 1 180 1
280 0.6 2 0 0
281 0.4 1 180 1
282 0.6 2 0 0
283 0.4 1 0 1
284 0.6 2 0 0
285 0 1 0 1
286 0 1 0 1
287 0 1 0 1
288 1.17 3 180 0
289 0.05 6 180 1
290 0.2 3 0 1
291 0.2 3 0 1
292 0.2 3 0 1
293 0.2 3 0 1
294 0 1 0 1
295 0 1 0 1
296 2.25 2 180 1
297 2.4 2 180 1
298 4.2 2 180 1
299 0.24 1 180 1
300 2.4 2 180 1
301 3 2 180 1
302 3 2 180 1
303 0.3 1 0 1
304 -0.3 4 0 0
305 0.4 1 0 1
306 0.3 1 0 1
307 -0.3 4 0 0
308 -0.3 4 0 1
309 0.6 1 0 1
310 0.75 2 180 0
311 0.6 1 0 1
312 0 1 0 1
313 0.05 6 180 1
314 0.09 1 0 1
315 0.19 2 180 0
316 0.17 3 0 0
317 0.18 1 180 1
318 0.19 2 180 0
319 1.46 3 0 0
320 0.34 1 0 1
321 1.35 3 180 0
322 0.5 2 180 0
323 1.43 3 0 0
324 0.2 3 0 1
325 0 1 0 1
326 14 2 180 0
327 0.1 3 0 1
328 0.2 3 0 1
329 1.61 1 180 1
330 1.29 2 180 0
331 0.59 3 180 0
332 0.11 1 0 1
333 0.98 2 180 0
334 1.6 3 180 0
335 0.2 3 0 1
336 0.2 3 0 1
337 0.2 1 180 1
338 0.1 1 180 1
339 0 1 0 1
340 0.2 1 180 1
341 0 1 0 1
342 0.8 3 0 1
343 0.8 3 0 1
344 0 3 180 1
345 0 3 180 1
346 0 6 180 1
347 0 6 180 1
348 0.2 1 180 1
349 0.52 2 180 0
350 1.8 1 0 1
351 1.8 1 0 1
352 1.8 1 0 1
353 1.8 1 0 1
354 0 1 0 1
355 0 1 0 1
356 3.1 2 180 0.5
357 3.1 2 180 1
358 4.2 2 180 1
359 3.1 2 180 1
360 0.29 3 180 0
361 3 2 180 0.5
362 4.2 2 180 1
363 1.07 1 0 1
364 0.24 2 180 0
365 0.17 3 180 0
366 0 6 0 1
367 0.99 2 180 1
368 3 2 180 0.5
369 4 2 180 1
370 3 2 180 1
371 0.14 1 180 1
372 0.2 3 0 1
373 0.52 1 180 1
374 0.62 2 180 0
375 1.58 3 0 0
376 3 2 180 1
377 5 2 180 0
378 0.03 1 0 1
379 0.55 2 0 0
380 0.39 3 180 0
381 0.01 3 0 1
382 0.26 2 180 0
383 3 2 180 1
384 6.5 2 180 0
385 3.1 2 180 0.5
386 4.2 2 180 1
387 3 2 180 0.5
388 4 2 180 1
389 4 2 180 1
390 2.5 2 180 1
391 0.2 2 180 1
392 1.6 3 180 1

Atoms # full

5158 333 5 -1.4000000000000001e-01 -7.9664400967007154e+01 -1.6025797824355431e+02 -3.0112359305727343e-01 0 0 0
5157 333 23 1.6000000000000000e-01 -7.8552528644037210e+01 -1.6187745532305800e+02 2.5484185336672727e-01 0 0 0
5156 333 19 -2.7000000000000002e-01 -7.8671989311223584e+01 -1.6085542981472651e+02 4.2504087391884326e-01 0 0 0
5159 333 23 1.4000000000000001e-01 -8.0261958114456363e+01 -1.6092839950675150e+02 -9.4897003666095081e-01 0 0 0
5148 333 28 -5.1000000000000001e-01 -7.6911757312050199e+01 -1.6046874154532523e+02 2.1077517016667935e+00 0 0 0
5150 333 13 2.3999999999999999e-01 -7.7954286797492813e+01 -1.6010338903028486e+02 1.3301998622941158e+00 0 0 0
5375 347 2 8.9999999999999997e-02 -7.6991544419123059e+01 -1.6651281078492863e+02 5.4595788002107053e+00 0 0 0
5155 333 23 1.4000000000000001e-01 -8.0794060519920421e+01 -1.5847495150763115e+02 -5.9653061366801552e-01 0 0 0
5154 333 5 -2.0000000000000001e-01 -7.9891005535130120e+01 -1.5889609571031491e+02 -1.2589519474161515e-01 0 0 0
5162 334 24 -4.6999999999999997e-01 -7.7041066879644660e+01 -1.5438608274485961e+02 4.4040546531722651e+00 0 0 0
5164 334 6 7.0000000000000007e-02 -7.7737338723409977e+01 -1.5320794393806688e+02 4.8809222234680618e+00 0 0 0
5142 333 7 -1.7999999999999999e-01 -7.7250646812378534e+01 -1.5694691567949269e+02 3.2654289940494232e+00 0 0 0
5153 333 23 1.7000000000000001e-01 -7.9419257974418244e+01 -1.5711324500172049e+02 8.8705172749235828e-01 0 0 0
5179 334 4 5.1000000000000001e-01 -7.6778313416385117e+01 -1.5235307321127408e+02 5.7726059709332809e+00 0 0 0
5152 333 19 -2.5000000000000000e-01 -7.9190909876114915e+01 -1.5815304812143253e+02 8.1788059922204226e-01 0 0 0
5151 333 13 1.1000000000000000e-01 -7.8265811754549503e+01 -1.5873095721735095e+02 1.6104948480244843e+00 0 0 0
5170 334 3 8.9999999999999997e-02 -7.9353717586561146e+01 -1.5142431678518790e+02 5.7174401708968752e+00 0 0 0
5178 334 3 8.9999999999999997e-02 -8.1846711783282757e+01 -1.5365935373496606e+02 5.4631691942182110e+00 0 0 0
5167 334 40 8.9999999999999997e-02 -7.8867803152452993e+01 -1.5439398424269743e+02 6.3064652728451236e+00 0 0 0
5177 334 3 8.9999999999999997e-02 -8.1195423095149579e+01 -1.5524356014899837e+02 5.9285171227773823e+00 0 0 0
5176 334 3 8.9999999999999997e-02 -8.1958374719363746e+01 -1.5508571841204812e+02 4.2876045727386236e+00 0 0 0
5175 334 9 -2.7000000000000002e-01 -8.1362351582504189e+01 -1.5457775483509005e+02 5.0704246207322257e+00 0 0 0
5173 334 2 8.9999999999999997e-02 -8.0244216083607867e+01 -1.5322447217945137e+02 3.7563961131348620e+00 0 0 0
5144 333 2 8.9999999999999997e-02 -7.8193014761868596e+01 -1.5644307882539218e+02 3.3980656439360630e+00 0 0 0
5168 334 9 -2.7000000000000002e-01 -7.9466360721914128e+01 -1.5236327734828504e+02 6.3524194504801832e+00 0 0 0
5169 334 3 8.9999999999999997e-02 -7.8973149422968802e+01 -1.5221514555080844e+02 7.3240671611320876e+00 0 0 0
5165 334 34 8.9999999999999997e-02 -7.8018720528214430e+01 -1.5262493283125090e+02 4.0290181807613754e+00 0 0 0
5166 334 6 -8.9999999999999997e-02 -7.9024985214654762e+01 -1.5364380231910769e+02 5.5684684340207049e+00 0 0 0
5174 334 2 8.9999999999999997e-02 -7.9648001695808645e+01 -1.5497402568552471e+02 3.8072799381970581e+00 0 0 0
5172 334 7 -1.7999999999999999e-01 -8.0030219833621260e+01 -1.5412472446752693e+02 4.4819133889739033e+00 0 0 0
5171 334 3 8.9999999999999997e-02 -8.0557927535817328e+01 -1.5238674414833602e+02 6.4751621674260793e+00 0 0 0
5326 344 29 -5.5000000000000004e-01 -7.6779924436364610e+01 -1.5602602750027435e+02 6.7907409703787609e+00 0 0 0
5145 333 14 -2.9999999999999999e-02 -7.7412819900518130e+01 -1.5832520911167725e+02 2.6792019882734093e+00 0 0 0
5189 335 1 4.2999999999999999e-01 -7.7205736096343500e+01 -1.5382190030943556e+02 9.4617149472144586e+00 0 0 0
5143 333 2 8.9999999999999997e-02 -7.6828909673804333e+01 -1.5710421694382282e+02 4.2953738670143666e+00 0 0 0
5163 334 1 3.1000000000000000e-01 -7.7480184369500378e+01 -1.5525615425798281e+02 4.7343841364011201e+00 0 0 0
5188 335 31 -6.6000000000000003e-01 -7.7094022262109902e+01 -1.5288307474249089e+02 9.6046514471285374e+00 0 0 0
898 58 29 -5.5000000000000004e-01 -6.3030760421088686e+01 -1.7210864585722101e+02 -1.7569915528558063e+01 0 1 0
5048 327 2 8.9999999999999997e-02 -6.9236492125899957e+01 -1.6079728210238326e+02 -9.5342956491173183e+00 0 0 0
5052 327 2 8.9999999999999997e-02 -6.6981219240751585e+01 -1.6135172236292536e+02 -9.9202644759517362e+00 0 0 0
437 29 3 8.9999999999999997e-02 -6.6633126549718526e+01 -1.7142172990149012e+02 -9.8718159585240173e+00 0 1 0
435 29 9 -2.7000000000000002e-01 -6.5797492271654207e+01 -1.7075253313130608e+02 -1.0154020174640969e+01 0 1 0
429 29 6 7.0000000000000007e-02 -6.4358649691106393e+01 -1.7260495755963549e+02 -1.0883516581068616e+01 0 1 0
899 58 25 -6.2000000000000000e-01 -6.3334615970529072e+01 -1.7205745407182658e+02 -1.5357160020609850e+01 0 1 0
432 29 40 8.9999999999999997e-02 -6.3646372712166212e+01 -1.7074188082577700e+02 -9.9607345439242057e+00 0 1 0
430 29 34 8.9999999999999997e-02 -6.5079816616152982e+01 -1.7246085478718183e+02 -1.1633844464542740e+01 0 1 0
438 29 3 8.9999999999999997e-02 -6.5837642504787951e+01 -1.6985114854340256e+02 -9.5438555311824871e+00 0 1 0
901 58 1 2.9999999999999999e-01 -6.4289185031175634e+01 -1.7214062214965020e+02 -1.5493152661073299e+01 0 1 0
436 29 3 8.9999999999999997e-02 -6.5984457890606294e+01 -1.7047310288384830e+02 -1.1242220226807625e+01 0 1 0
5050 327 7 -1.7999999999999999e-01 -6.7390671827681800e+01 -1.6169154322664249e+02 -8.9173291535976418e+00 0 0 0
431 29 6 1.4000000000000001e-01 -6.4478867038015139e+01 -1.7146153075588470e+02 -9.9485120493945445e+00 0 1 0
439 29 4 5.1000000000000001e-01 -6.2920873312118665e+01 -1.7265780279264990e+02 -1.1542554015984363e+01 0 1 0
440 29 29 -5.1000000000000001e-01 -6.2673305556840802e+01 -1.7246300330189291e+02 -1.2694311521937015e+01 0 1 0
900 58 1 3.2000000000000001e-01 -6.2930919297092252e+01 -1.7226886605393292e+02 -1.4467599828916985e+01 0 1 0
897 58 18 5.5000000000000004e-01 -6.2543589468641827e+01 -1.7194946716159652e+02 -1.6456071222009097e+01 0 1 0
5047 327 7 -1.7999999999999999e-01 -6.8599649060197351e+01 -1.6077604429536453e+02 -8.6084183706926556e+00 0 0 0
5051 327 2 8.9999999999999997e-02 -6.7759706483551909e+01 -1.6276399530720659e+02 -8.9725977155276944e+00 0 0 0
433 29 31 -6.6000000000000003e-01 -6.4523804423772845e+01 -1.7185253903255898e+02 -8.5922626445714894e+00 0 1 0
442 30 1 3.1000000000000000e-01 -6.2162047789338310e+01 -1.7310263972509060e+02 -9.6318632533323782e+00 0 1 0
5049 327 2 8.9999999999999997e-02 -6.8171999080824108e+01 -1.5971639972584953e+02 -8.5274597184173260e+00 0 0 0
5080 328 4 5.1000000000000001e-01 -7.0642835774803899e+01 -1.6481128374428292e+02 -5.3121301621645225e+00 0 0 0
5082 329 24 -4.6999999999999997e-01 -7.1184602516998922e+01 -1.6380406275355944e+02 -4.6841682802785831e+00 0 0 0
5081 328 29 -5.1000000000000001e-01 -7.1145992182961791e+01 -1.6593007737522382e+02 -5.3552109833722552e+00 0 0 0
5084 329 6 7.0000000000000007e-02 -7.2584062216900932e+01 -1.6372510028323251e+02 -4.3256594398816919e+00 0 0 0
5432 351 3 8.9999999999999997e-02 -6.9717672473141320e+01 -1.6793671873858744e+02 -3.0000700668612006e+00 0 0 0
5083 329 1 3.1000000000000000e-01 -7.0691709330771872e+01 -1.6292449763818976e+02 -4.8132400887378060e+00 0 0 0
5085 329 34 8.9999999999999997e-02 -7.3249208127708783e+01 -1.6358745965146119e+02 -5.1801807047518142e+00 0 0 0
5088 329 2 8.9999999999999997e-02 -7.3332270134496966e+01 -1.6581887957681224e+02 -4.1563631114960655e+00 0 0 0
5086 329 7 5.0000000000000003e-02 -7.3100950830399498e+01 -1.6493719229507138e+02 -3.4769139904109365e+00 0 0 0
5092 329 29 -5.1000000000000001e-01 -7.2140564061230677e+01 -1.6136306037890228e+02 -4.0913608021076966e+00 0 0 0
5433 351 3 8.9999999999999997e-02 -7.0461846934561990e+01 -1.6904145853189337e+02 -1.8789554476048027e+00 0 0 0
5430 351 9 -2.7000000000000002e-01 -6.9757027332271448e+01 -1.6819499851048576e+02 -1.9231538613644816e+00 0 0 0
5087 329 2 8.9999999999999997e-02 -7.4135594439511465e+01 -1.6476487675753071e+02 -3.0009714017093887e+00 0 0 0
5091 329 4 5.1000000000000001e-01 -7.2671088446070627e+01 -1.6238311050388978e+02 -3.5720901677137560e+00 0 0 0
5089 329 31 -6.6000000000000003e-01 -7.2156358940053565e+01 -1.6549734442976492e+02 -2.6222992434754304e+00 0 0 0
5093 330 24 -4.6999999999999997e-01 -7.3523477068618888e+01 -1.6236194683680759e+02 -2.4713894033540358e+00 0 0 0
5090 329 1 4.2999999999999999e-01 -7.1667477617561715e+01 -1.6608571828235731e+02 -3.1950912067618957e+00 0 0 0
5094 330 1 3.1000000000000000e-01 -7.3973408953602330e+01 -1.6323652359121604e+02 -2.2197435307243425e+00 0 0 0
5096 330 34 8.9999999999999997e-02 -7.4037513035659060e+01 -1.6030653484527843e+02 -2.1102238427697109e+00 0 0 0
5447 352 1 2.9999999999999999e-01 -7.0430128569545687e+01 -1.6277543393705622e+02 -2.2344437269906292e+00 0 0 0
5443 352 18 5.5000000000000004e-01 -6.9192348256502427e+01 -1.6376099671857770e+02 -9.5162084988831919e-01 0 0 0
5032 326 40 8.9999999999999997e-02 -6.9325752316474251e+01 -1.6000496139396950e+02 -3.1499548515801106e+00 0 0 0
5431 351 3 8.9999999999999997e-02 -7.0181585527531766e+01 -1.6725256637679277e+02 -1.4380905686617471e+00 0 0 0
5095 330 6 7.0000000000000007e-02 -7.3891041459238764e+01 -1.6132693995648049e+02 -1.5269879390409051e+00 0 0 0
5097 330 8 -2.8000000000000003e-01 -7.5275848268705403e+01 -1.6170990141963409e+02 -8.5142185558898176e-01 0 0 0
5098 330 2 8.9999999999999997e-02 -7.5604529300464193e+01 -1.6081328687693352e+02 -2.6883418820118521e-01 0 0 0
5104 330 29 -5.1000000000000001e-01 -7.1659584766040169e+01 -1.6054598341581465e+02 -8.3501272934682191e-01 0 0 0
5444 352 29 -5.5000000000000004e-01 -7.0108860505172402e+01 -1.6446069894503233e+02 -5.3097452668726819e-01 0 0 0
5103 330 4 5.1000000000000001e-01 -7.2696543945036311e+01 -1.6110774399736471e+02 -5.4384540834431161e-01 0 0 0
5101 330 30 -7.6000000000000001e-01 -7.4899786315520601e+01 -1.6403598178869032e+02 -4.7718687494752043e-01 0 0 0
5046 327 34 8.9999999999999997e-02 -7.0571080091756400e+01 -1.6046921901698445e+02 -7.4547499014161813e+00 0 0 0
5065 327 4 5.1000000000000001e-01 -6.9720971515036666e+01 -1.6242190740037384e+02 -7.1414396654136674e+00 0 0 0
5045 327 6 7.0000000000000007e-02 -6.9555466038584072e+01 -1.6093895809384946e+02 -7.3041482286483577e+00 0 0 0
5099 330 2 8.9999999999999997e-02 -7.6022111575285663e+01 -1.6177594136848921e+02 -1.7089217560374861e+00 0 0 0
5066 327 29 -5.1000000000000001e-01 -7.0322735968259465e+01 -1.6309270973859577e+02 -7.9926049111767394e+00 0 0 0
5100 330 18 6.2000000000000000e-01 -7.5335771463227218e+01 -1.6296786351730324e+02 1.0392961178028073e-03 0 0 0
5445 352 25 -6.2000000000000000e-01 -6.9501956525968311e+01 -1.6275312478123368e+02 -1.8165168295265850e+00 0 0 0
5069 328 6 7.0000000000000007e-02 -6.9210448651588820e+01 -1.6441810811848691e+02 -5.8045458622305732e+00 0 0 0
5067 328 24 -4.6999999999999997e-01 -6.9275765334001861e+01 -1.6301314805271338e+02 -6.0388735814065075e+00 0 0 0
5070 328 34 8.9999999999999997e-02 -6.8913496548019481e+01 -1.6498345090085002e+02 -6.6923377455937478e+00 0 0 0
5446 352 1 3.2000000000000001e-01 -6.8842549928656339e+01 -1.6224945543392792e+02 -2.2574693170275033e+00 0 0 0
5043 327 24 -4.6999999999999997e-01 -6.8895000583087935e+01 -1.6031961992166467e+02 -6.1459747559301787e+00 0 0 0
5146 333 5 -1.4999999999999999e-01 -7.6570534546738898e+01 -1.5944322069872112e+02 2.9336439601407882e+00 0 0 0
5035 326 3 8.9999999999999997e-02 -6.7193856778249227e+01 -1.5955253882555877e+02 -1.9788178059114827e+00 0 0 0
5072 328 2 8.9999999999999997e-02 -6.8553307204689460e+01 -1.6441392859994852e+02 -3.6231951250723804e+00 0 0 0
5428 351 6 7.0000000000000007e-02 -6.8294576601900673e+01 -1.6854984693852111e+02 -1.4666586808900883e+00 0 0 0
5437 352 1 3.1000000000000000e-01 -6.8421088918443829e+01 -1.6625116553092644e+02 -3.5722842488755924e-01 0 0 0
5073 328 2 8.9999999999999997e-02 -6.8194191094029406e+01 -1.6576864142539424e+02 -4.6568423511854906e+00 0 0 0
5071 328 8 -1.7999999999999999e-01 -6.8184576805334757e+01 -1.6471540524295307e+02 -4.6185217538651901e+00 0 0 0
5068 328 1 3.1000000000000000e-01 -6.8569121799852184e+01 -1.6254052260952139e+02 -5.4605937157108499e+00 0 0 0
5044 327 1 3.1000000000000000e-01 -6.8327469203660854e+01 -1.6090976235553723e+02 -5.4656412436725157e+00 0 0 0
5429 351 34 8.9999999999999997e-02 -6.7992596990525556e+01 -1.6936647534165317e+02 -2.1799392811347853e+00 0 0 0
5078 328 30 -7.6000000000000001e-01 -6.7442657475433066e+01 -1.6198512854896100e+02 -4.3587586394027600e+00 0 0 0
5434 351 4 5.1000000000000001e-01 -6.7396872653777748e+01 -1.6729516195847970e+02 -1.6848687066279113e+00 0 0 0
5436 352 24 -4.6999999999999997e-01 -6.7655895596974105e+01 -1.6625115094216278e+02 -9.4617794809431377e-01 0 0 0
5435 351 29 -5.1000000000000001e-01 -6.6563458080877695e+01 -1.6724722506894136e+02 -2.5789798664015033e+00 0 0 0
44 3 3 8.9999999999999997e-02 -6.6311062288398318e+01 -1.7031720191273283e+02 -3.6379784322222366e+00 0 1 0
43 3 9 -2.7000000000000002e-01 -6.6128609166831907e+01 -1.7084305997365016e+02 -4.5574012593406801e+00 0 1 0
5076 328 2 8.9999999999999997e-02 -6.6478555945276227e+01 -1.6414649382044536e+02 -5.8870191916601708e+00 0 0 0
5074 328 7 -2.8000000000000003e-01 -6.6752325910925265e+01 -1.6416854576639398e+02 -4.8073129385447579e+00 0 0 0
5054 327 2 8.9999999999999997e-02 -6.6562055899444374e+01 -1.6207539455066825e+02 -6.9695860340746005e+00 0 0 0
5075 328 2 8.9999999999999997e-02 -6.6077587852764580e+01 -1.6486082964925123e+02 -4.2350876732765110e+00 0 0 0
5077 328 18 6.2000000000000000e-01 -6.6472236847038261e+01 -1.6271254113620131e+02 -4.2410382736651870e+00 0 0 0
5079 328 30 -7.6000000000000001e-01 -6.5286465100689000e+01 -1.6240116454542220e+02 -4.4677918027804466e+00 0 0 0
5061 327 12 4.6000000000000002e-01 -6.4565899428181822e+01 -1.6138185961901078e+02 -5.7198852407219629e+00 0 0 0
5059 327 27 -8.0000000000000004e-01 -6.3933558767721905e+01 -1.6093658103755794e+02 -6.3399967563090485e+00 0 0 0
4946 320 26 -2.9999999999999999e-01 -6.2940691776742220e+01 -1.6227634772464765e+02 -2.9891434017018308e+00 0 0 0
4949 320 12 3.3000000000000002e-01 -6.3877792943214295e+01 -1.6229877023269026e+02 -3.4919399068117358e+00 0 0 0
4948 320 12 3.3000000000000002e-01 -6.2730578314812171e+01 -1.6327643463632413e+02 -2.6818510878644903e+00 0 0 0
4943 320 7 2.0999999999999999e-01 -6.3029271696131438e+01 -1.6122696259787563e+02 -1.9628531793947686e+00 0 0 0
5056 327 27 -6.9999999999999996e-01 -6.5638407418925581e+01 -1.6024631770772663e+02 -7.8323918354922606e+00 0 0 0
5058 327 4 6.4000000000000001e-01 -6.4490563997087065e+01 -1.6009701676384839e+02 -7.1987241880657580e+00 0 0 0
4942 320 2 8.9999999999999997e-02 -6.5197010699783334e+01 -1.6122528601180892e+02 -1.8612166024288306e+00 0 0 0
46 3 3 8.9999999999999997e-02 -6.6869891979254191e+01 -1.7054766365337963e+02 -5.3199195887950035e+00 0 1 0
45 3 3 8.9999999999999997e-02 -6.5138994343542748e+01 -1.7059211112186452e+02 -4.8611977231030767e+00 0 1 0
5060 327 12 4.6000000000000002e-01 -6.2948207176115275e+01 -1.6074079526779863e+02 -6.1260321182101469e+00 0 0 0
4947 320 12 3.3000000000000002e-01 -6.2288019391009463e+01 -1.6197443904443796e+02 -3.7987751682793460e+00 0 0 0
5459 353 29 -5.1000000000000001e-01 -6.2183079507247065e+01 -1.6489757163865050e+02 -1.1885894461424038e+00 0 0 0
5456 353 3 8.9999999999999997e-02 -6.3189268008854256e+01 -1.6828732243197723e+02 -9.3806250833543725e-01 0 0 0
5451 353 1 3.1000000000000000e-01 -6.4720148347587156e+01 -1.6666823916091073e+02 -1.4807326498748701e+00 0 0 0
4940 320 7 -1.7999999999999999e-01 -6.4308177056879018e+01 -1.6047884152675243e+02 -1.8748602109935910e+00 0 0 0
4945 320 2 5.0000000000000003e-02 -6.2887070640497321e+01 -1.6166694487070373e+02 -9.4942344978877269e-01 0 0 0
5439 352 34 8.9999999999999997e-02 -6.6872478711988322e+01 -1.6475772084245691e+02 -2.0630233286317501e+00 0 0 0
5438 352 6 7.0000000000000007e-02 -6.6986300699684278e+01 -1.6498125695808540e+02 -1.0001184676712565e+00 0 0 0
5053 327 7 2.0000000000000001e-01 -6.6226983092184469e+01 -1.6160744462208538e+02 -7.9574008102373099e+00 0 0 0
4939 320 2 8.9999999999999997e-02 -6.5394253602670602e+01 -1.5961682160048431e+02 -3.4554129779671792e+00 0 0 0
4936 320 2 8.9999999999999997e-02 -6.2963487595964899e+01 -1.5973457861153432e+02 -3.9977816988754653e+00 0 0 0
32 2 29 -5.1000000000000001e-01 -6.3352496825191444e+01 -1.7164756456936689e+02 -1.6032177328478161e+00 0 1 0
36 3 34 8.9999999999999997e-02 -6.5501091852595252e+01 -1.7211963308590302e+02 -2.2718023491525932e+00 0 1 0
5425 350 29 -5.1000000000000001e-01 -6.6004369293281570e+01 -1.6961971180015647e+02 -1.6260620983833526e-01 0 0 0
5440 352 7 -1.7999999999999999e-01 -6.7747050356517136e+01 -1.6382603002985340e+02 -4.1086343913112872e-01 0 0 0
5458 353 4 5.1000000000000001e-01 -6.2241202242615230e+01 -1.6560195853595289e+02 -1.5088253695940509e-01 0 0 0
5450 353 24 -4.6999999999999997e-01 -6.4734440322900340e+01 -1.6617463168823321e+02 -6.1661053193222393e-01 0 0 0
5442 352 2 8.9999999999999997e-02 -6.7058340567722325e+01 -1.6295508965173184e+02 -6.9051395935056703e-01 0 0 0
34 3 1 3.1000000000000000e-01 -6.3616008902699605e+01 -1.7300762562190829e+02 -4.3457275926223389e+00 0 1 0
5448 352 4 5.1000000000000001e-01 -6.5551858723111025e+01 -1.6507001292957335e+02 -3.8646008590310021e-01 0 0 0
5390 348 34 8.9999999999999997e-02 -6.8801373243082665e+01 -1.6641524140973436e+02 6.8744106660019977e+00 0 0 0
26 2 2 8.9999999999999997e-02 -6.2985545725989894e+01 -1.7161358461563671e+02 -5.8829522957791651e+00 0 1 0
5426 351 24 -4.6999999999999997e-01 -6.8098534252667775e+01 -1.6901642034692463e+02 -9.9229674260812750e-02 0 0 0
8 1 21 -3.5999999999999999e-01 -6.2246953946030970e+01 -1.7127850507200566e+02 7.8160372221643315e-01 0 1 0
5454 353 9 -2.7000000000000002e-01 -6.3326876822462452e+01 -1.6791034938640846e+02 1.0673905554498221e-01 0 0 0
5452 353 6 7.0000000000000007e-02 -6.3584557472830156e+01 -1.6645210761486001e+02 2.3967001680957711e-01 0 0 0