LAMMPS data file via write_data, version 30 Jul 2016, timestep = 33002258

5828 atoms
40 atom types
5882 bonds
73 bond types
10665 angles
164 angle types
18511 dihedrals
392 dihedral types

-9.1443200000000004e+01 -3.2587000000000003e+01 xlo xhi
-3.7404134279999994e+02 1.5329206379999994e+02 ylo yhi
-4.4625599999999999e+01 2.7593100000000000e+01 zlo zhi

Masses

1 1.008
2 1.008
3 1.008
4 12.011
5 12.011
6 12.011
7 12.011
8 12.011
9 12.011
10 12.011
11 12.011
12 1.008
13 12.011
14 12.011
15 12.011
16 12.011
17 12.011
18 12.011
19 12.011
20 14.007
21 14.007
22 14.007
23 1.008
24 14.007
25 14.007
26 14.007
27 14.007
28 14.007
29 15.999
30 15.999
31 15.999
32 32.06
33 32.06
34 1.008
35 22.98
36 1.008
37 1.008
38 1.008
39 1.008
40 1.008

Pair Coeffs # lj/charmm/coul/charmm

1 0.046 0.400014 0.046 0.400014
2 0.034 2.38761 0.034 2.38761
3 0.024 2.38761 0.024 2.38761
4 0.11 3.56359 0.11 3.56359
5 0.07 3.55005 0.07 3.55005
6 0.032 3.56359 0.01 3.38542
7 0.056 3.58141 0.01 3.38542
8 0.056 3.58141 0.01 3.38542
9 0.078 3.63487 0.01 3.38542
10 0.05 3.20724 0.05 3.20724
11 0.05 3.20724 0.05 3.20724
12 0.046 0.400014 0.046 0.400014
13 0.099 3.31414 0.099 3.31414
14 0.073 3.54578 0.073 3.54578
15 0.02 4.05359 0.01 3.38542
16 0.055 3.87541 0.01 3.38542
17 0.055 3.87541 0.01 3.38542
18 0.07 3.56359 0.07 3.56359
19 0.073 3.54578 0.073 3.54578
20 0.2 3.29633 0.0001 3.29633
21 0.2 3.29633 0.2 3.29633
22 0.2 3.29633 0.2 3.29633
23 0.03 2.42004 0.03 2.42004
24 0.2 3.29633 0.2 2.76179
25 0.2 3.29633 0.2 3.29633
26 0.2 3.29633 0.2 3.29633
27 0.2 3.29633 0.2 3.29633
28 0.2 3.29633 0.2 3.29633
29 0.12 3.02906 0.12 2.49452
30 0.12 3.02906 0.12 3.02906
31 0.1521 3.15378 0.1521 3.15378
32 0.45 3.56359 0.45 3.56359
33 0.38 3.51905 0.38 3.51905
34 0.022 2.35197 0.022 2.35197
35 0.5 3.144 0.5 3.144
36 0.028 2.38761 0.028 2.38761
37 0.046 1.60362 0.046 1.60362
38 0.0078 2.61568 0.0078 2.61568
39 0.1 0.801809 0.1 0.801809
40 0.045 2.38761 0.045 2.38761

Bond Coeffs # harmonic

1 250 1.49
2 230 1.49
3 350 1.365
4 340 1.08
5 270 1.37
6 334.3 1.411
7 300 1.36
8 340 1.08
9 200 1.522
10 200 1.522
11 200 1.522
12 250 1.49
13 430 1.36
14 650 1.23
15 525 1.26
16 222.5 1.527
17 330 1.08
18 320 1.434
19 222.5 1.537
20 222.5 1.537
21 309 1.111
22 309 1.111
23 250 1.49
24 320 1.455
25 410 1.36
26 229.63 1.5
27 365 1.083
28 400 1.38
29 400 1.38
30 340 1.09
31 400 1.36
32 400 1.32
33 360 1.385
34 260 1.3
35 350 1.43
36 270 1.37
37 222.5 1.5
38 222.5 1.538
39 222.5 1.538
40 222.5 1.538
41 309 1.111
42 330 1.08
43 320 1.43
44 428 1.42
45 450 1.365
46 222.5 1.53
47 222.5 1.53
48 222.5 1.528
49 375 1.492
50 309 1.111
51 330 1.08
52 390 1.49
53 320 1.43
54 200 1.48
55 428 1.42
56 370 1.345
57 198 1.818
58 214 1.816
59 309 1.111
60 322 1.111
61 240 1.816
62 440 0.997
63 480 1
64 466 1
65 537.5 0.976
66 545 0.96
67 620 1.23
68 455 1
69 403 1.04
70 275 1.325
71 173 2.029
72 305 1.375
73 305 1.375

Angle Coeffs # charmm

1 52 112.3 0 0
2 50 109.5 0 0
3 50 116.5 50 2.45
4 15 121 50 2.44
5 40 118 50 2.388
6 45.8 124 0 0
7 53.35 114 8 2.561
8 34.5 110.1 22.53 2.179
9 35 111 0 0
10 70 113.5 0 0
11 58.35 113.6 11.16 2.561
12 26.5 110.1 22.53 2.179
13 50 107 0 0
14 67.7 107.5 0 0
15 67.7 110 0 0
16 58 114.5 0 0
17 26.5 110.1 22.53 2.179
18 34.6 110.1 22.53 2.179
19 40.4 120 0 0
20 35 117 0 0
21 30 109.5 20 2.074
22 57.5 106 0 0
23 34 95 0 0
24 60 117 0 0
25 38.8 95 0 0
26 72.5 103.3 0 0
27 40 118 50 2.388
28 35 111 0 0
29 70 113.5 0 0
30 26.5 110.1 22.53 2.179
31 53.35 114 8 2.561
32 34.5 110.1 22.53 2.179
33 35 111 0 0
34 70 113.5 0 0
35 60 117 0 0
36 75.7 110.1 0 0
37 34.6 110.1 22.53 2.179
38 32 125 25 2.173
39 85 110.5 25 2.24
40 55 109.5 0 0
41 23 120 0 0
42 45.9 108.89 0 0
43 35.5 109 5.4 1.802
44 35.5 109 5.4 1.802
45 48 108 0 0
46 62.3 120 0 0
47 35.5 109 5.4 1.802
48 56.5 107.5 0 0
49 45 107.5 35 2.101
50 45.9 108.89 0 0
51 46.1 111.3 0 0
52 38 111 0 0
53 35.5 109 5.4 1.802
54 35.5 108.4 5.4 1.802
55 46.1 111.3 0 0
56 48 112 0 0
57 49 120 0 0
58 48 108 0 0
59 36 115 0 0
60 48 108 0 0
61 25 120 0 0
62 44 109.5 0 0
63 32 125 25 2.177
64 25 122.5 20 2.14
65 25 125 20 2.12
66 25 120 20 2.14
67 80 122.5 0 0
68 50 120 0 0
69 40 120 70 2.31
70 80 122.5 0 0
71 75 122.5 50 2.37
72 130 112.5 0 0
73 100 124 70 2.225
74 50 120 0 0
75 34 123 0 0
76 40 120 35 2.4162
77 50 112 0 0
78 40 120 35 2.4162
79 45.8 122.3 0 0
80 30 120 22 2.1525
81 45.2 120 0 0
82 50 113.2 0 0
83 30 120 22 2.1525
84 51.8 107.5 0 0
85 49.3 107.5 0 0
86 85 106.4 25 2.261
87 30 127 0 0
88 50 108.2 0 0
89 85 112 0 0
90 28 126 0 0
91 65 108 0 0
92 30 120 22 2.1525
93 50 110 0 0
94 130 133.5 0 0
95 130 129.5 0 0
96 52 108 0 0
97 50 109.5 0 0
98 50 107 0 0
99 52 108 0 0
100 52 108 0 0
101 52 108 0 0
102 52 108 0 0
103 33 109.5 30 2.163
104 52 108 0 0
105 33 109.5 30 2.163
106 50 120 0 0
107 20 112.5 0 0
108 80 116.5 0 0
109 80 118 0 0
110 52 108 0 0
111 70 108.5 0 0
112 33.43 110.1 22.53 2.179
113 100 114.2 0 0
114 35 118 0 0
115 70 110.8 0 0
116 70 108.5 0 0
117 26.5 110.1 22.53 2.179
118 26.5 110.1 22.53 2.179
119 70 110.5 0 0
120 26.5 110.1 22.53 2.179
121 52 108 0 0
122 45.8 130 0 0
123 25 130 20 2.2
124 130 106 0 0
125 130 110 0 0
126 58.35 113 0 0
127 33.43 109.5 0 0
128 130 107.5 0 0
129 30 125.5 20 2.15
130 130 104 0 0
131 30 127 20 2.14
132 52 108 0 0
133 30 122 22 2.146
134 85 108 0 0
135 95 107.4 0 0
136 30 126.7 0 0
137 28 126 0 0
138 20 112.5 0 0
139 80 116.5 0 0
140 80 121 0 0
141 40 118 50 2.388
142 53.35 111 8 2.561
143 50 109.5 0 0
144 53.35 108.5 8 2.561
145 34.5 110.1 22.53 2.179
146 35 111 0 0
147 70 113.5 0 0
148 75.7 110.1 0 0
149 58.35 113.5 11.16 2.561
150 58.35 113.5 11.16 2.561
151 58.35 113.5 11.16 2.561
152 58.35 114 0 0
153 26.5 110.1 22.53 2.179
154 50 107 0 0
155 75.7 110.1 0 0
156 58 112.5 0 0
157 58 112.5 0 0
158 58.35 113.5 11.16 2.561
159 26.5 110.1 22.53 2.179
160 33.43 110.1 22.53 2.179
161 35 117 0 0
162 57.5 106 0 0
163 80 116.5 0 0
164 80 121 0 0

Dihedral Coeffs # charmm

1 0.14 3 0 1
2 0.33 3 180 0
3 0.2 3 0 1
4 0 1 0 1
5 0.2 3 0 1
6 0.28 1 180 1
7 0.5 2 180 0
8 0.38 3 0 0
9 1.84 1 180 1
10 0.84 2 180 0
11 0.39 3 180 0
12 0.19 3 0 1
13 0.2 3 0 1
14 0 1 180 1
15 0.38 2 180 0
16 0.59 3 180 0
17 0.19 3 0 1
18 0.2 3 0 1
19 0.68 1 180 1
20 0.1 2 180 0
21 0.38 3 0 0
22 2.75 2 180 1
23 0.3 4 0 0
24 0.79 1 180 1
25 2.75 2 180 1
26 0.3 4 0 0
27 1.6 1 0 1
28 2.5 2 180 0
29 1.6 1 0 1
30 2.5 2 180 0
31 2.5 2 180 1
32 0.16 3 0 0
33 0.16 3 0 1
34 2.75 2 180 1
35 0.39 2 180 0
36 0.3 4 0 0
37 2.75 2 180 1
38 0.3 4 0 0
39 0.1 3 0 0
40 0.1 3 0 1
41 0.4 1 0 1
42 0.6 2 0 0
43 0.4 1 0 1
44 0.6 2 0 0
45 0.4 1 180 1
46 0.99 3 180 0
47 0.6 2 0 0
48 0.1 3 0 0
49 0.14 3 0 1
50 0.14 3 0 0
51 0.14 3 0 1
52 0.14 3 0 0
53 0.16 3 0 1
54 2.75 2 180 1
55 0.3 4 0 0
56 2.75 2 180 1
57 1.28 1 180 1
58 0.3 4 0 0
59 0.1 3 0 1
60 1.74 1 0 1
61 0.15 2 0 0
62 0.77 3 180 0
63 0 3 0 1
64 14 2 180 0
65 1 2 180 1
66 14 2 180 0
67 0.2 3 0 1
68 0.94 2 180 0
69 0 1 0 1
70 0.9 3 0 0
71 3 2 180 1
72 14 2 180 0
73 3 2 180 1
74 14 2 180 0
75 3 2 180 1
76 3 2 180 1
77 3 2 180 1
78 1.57 3 180 0
79 3 2 180 1
80 3 2 180 1
81 0.85 2 180 1
82 2.8 2 180 1
83 5 2 180 0
84 0.36 1 180 1
85 0.05 2 0 0
86 0.19 3 180 0
87 0.2 3 0 1
88 6 2 180 0
89 1.41 1 180 1
90 2.6 2 180 1
91 1.6 1 0 1
92 2.5 2 180 0
93 1.6 1 0 1
94 2.5 2 180 0
95 2.5 2 180 1
96 0 1 0 1
97 0 1 0 1
98 1.4 1 0 1
99 0.38 1 180 1
100 1.29 2 180 0
101 0.13 2 180 0
102 0.29 3 180 0
103 0.2 3 0 1
104 0.2 3 0 1
105 0 1 0 1
106 0.18 1 0 1
107 0.06 2 0 0
108 0.25 3 0 0
109 0.62 1 180 1
110 0.66 2 180 0
111 0.14 3 0 1
112 0.59 3 180 0
113 0.72 3 180 0
114 0.42 1 180 1
115 0.15 2 180 0
116 0.95 3 180 0
117 1.49 1 0 1
118 0.09 2 180 0
119 0.79 3 180 0
120 0.05 1 0 1
121 0.1 2 180 0
122 0.01 3 180 0
123 0.18 1 180 1
124 0.2 3 0 1
125 0.2 3 0 1
126 0.48 1 180 1
127 0.42 2 180 0
128 0.65 3 0 0
129 0.63 1 180 1
130 0.01 2 0 0
131 0.15 3 0 0
132 0.19 3 0 1
133 0.14 1 180 1
134 0.64 2 180 0
135 0.54 2 0 0
136 0.69 3 0 0
137 0.16 3 0 1
138 0.02 1 0 1
139 0.56 2 0 0
140 0.49 3 0 0
141 0.2 1 0 1
142 0.65 2 0 0
143 0.22 3 0 0
144 0.31 3 0 1
145 0.87 3 180 0
146 0.84 1 0 1
147 0.98 2 180 0
148 1.46 3 0 0
149 0.19 3 0 1
150 1.6 1 0 1
151 2.5 2 180 0
152 2.5 2 180 1
153 1.6 1 0 1
154 2.5 2 180 0
155 2.5 2 180 1
156 0.32 1 180 1
157 4.2 2 180 1
158 1.4 2 180 1
159 2 2 180 1
160 3 2 180 1
161 1 2 180 1
162 0 1 0 1
163 0 1 0 1
164 1.4 1 0 1
165 0.2 3 0 1
166 0.12 1 180 1
167 0.61 2 180 0
168 0.36 2 180 0
169 0.41 3 0 0
170 0.2 3 0 1
171 0 1 0 1
172 0.05 6 180 1
173 0.05 6 180 1
174 0.2 3 0 1
175 0.88 1 180 1
176 1.9 3 0 0
177 0.72 3 180 0
178 0.1 2 180 1
179 0.15 4 0 0
180 0.1 6 180 0
181 0.19 3 0 1
182 0.19 3 0 1
183 0.19 3 0 1
184 0 6 180 1
185 0.1 3 0 1
186 0.24 1 180 1
187 0.37 3 0 0
188 0.35 1 180 1
189 0.2 3 0 1
190 0.3 1 0 1
191 0.35 2 0 0
192 1.76 3 0 0
193 1.2 2 180 1
194 2.5 2 180 1
195 2.25 2 180 1
196 2.5 2 180 1
197 0.28 3 0 1
198 1 1 0 1
199 0.42 2 180 0
200 4.1 2 0 0
201 0.9 3 0 0
202 0 1 0 1
203 0 1 0 1
204 1.4 1 0 1
205 0.05 6 180 1
206 0 1 0 1
207 0.05 6 180 1
208 0 1 0 1
209 0 1 0 1
210 1.91 3 180 0
211 1.4 1 0 1
212 0.2 3 0 1
213 0.18 1 0 1
214 0.06 2 0 0
215 0.59 3 0 0
216 0.2 3 0 1
217 0.2 3 0 1
218 0.2 3 0 1
219 0 1 0 1
220 1.33 1 0 1
221 0.8 3 0 1
222 1.09 1 180 1
223 0.18 2 0 0
224 0.32 3 0 0
225 0.2 3 0 1
226 0.28 3 0 1
227 0.05 2 180 1
228 4 2 180 1
229 6.5 2 180 0
230 0.2 3 0 1
231 0.29 1 180 1
232 0.66 2 180 0
233 0.5 2 180 0
234 1.17 3 0 0
235 2.5 2 180 1
236 0 1 0 1
237 0 1 0 1
238 1.4 2 180 1
239 1 2 180 1
240 1 2 180 1
241 0.4 2 180 1
242 0.14 3 0 1
243 0.14 3 0 1
244 1.17 3 180 0
245 0.2 3 0 1
246 0.2 3 0 1
247 0.2 3 0 1
248 0.2 3 0 1
249 0.14 3 0 1
250 0.14 3 0 1
251 0.16 3 0 1
252 0.14 3 0 1
253 0.14 3 0 1
254 0 3 180 1
255 0.2 3 0 1
256 0 3 180 1
257 0.05 6 180 1
258 0.19 3 0 1
259 0.2 3 0 1
260 0.2 3 0 1
261 0.19 3 0 1
262 0.19 3 0 1
263 0.19 3 0 1
264 0.01 3 0 1
265 0.19 3 0 1
266 0.65 1 180 1
267 0.16 3 0 1
268 0 6 180 1
269 0.1 3 0 1
270 0.2 3 0 1
271 0.158 3 0 1
272 0.05 6 180 1
273 0.2 3 0 1
274 0.2 3 0 1
275 0.2 3 0 1
276 0.2 3 0 1
277 0.25 2 180 0
278 0.2 3 0 1
279 0.4 1 180 1
280 0.6 2 0 0
281 0.4 1 180 1
282 0.6 2 0 0
283 0.4 1 0 1
284 0.6 2 0 0
285 0 1 0 1
286 0 1 0 1
287 0 1 0 1
288 1.17 3 180 0
289 0.05 6 180 1
290 0.2 3 0 1
291 0.2 3 0 1
292 0.2 3 0 1
293 0.2 3 0 1
294 0 1 0 1
295 0 1 0 1
296 2.25 2 180 1
297 2.4 2 180 1
298 4.2 2 180 1
299 0.24 1 180 1
300 2.4 2 180 1
301 3 2 180 1
302 3 2 180 1
303 0.3 1 0 1
304 -0.3 4 0 0
305 0.4 1 0 1
306 0.3 1 0 1
307 -0.3 4 0 0
308 -0.3 4 0 1
309 0.6 1 0 1
310 0.75 2 180 0
311 0.6 1 0 1
312 0 1 0 1
313 0.05 6 180 1
314 0.09 1 0 1
315 0.19 2 180 0
316 0.17 3 0 0
317 0.18 1 180 1
318 0.19 2 180 0
319 1.46 3 0 0
320 0.34 1 0 1
321 1.35 3 180 0
322 0.5 2 180 0
323 1.43 3 0 0
324 0.2 3 0 1
325 0 1 0 1
326 14 2 180 0
327 0.1 3 0 1
328 0.2 3 0 1
329 1.61 1 180 1
330 1.29 2 180 0
331 0.59 3 180 0
332 0.11 1 0 1
333 0.98 2 180 0
334 1.6 3 180 0
335 0.2 3 0 1
336 0.2 3 0 1
337 0.2 1 180 1
338 0.1 1 180 1
339 0 1 0 1
340 0.2 1 180 1
341 0 1 0 1
342 0.8 3 0 1
343 0.8 3 0 1
344 0 3 180 1
345 0 3 180 1
346 0 6 180 1
347 0 6 180 1
348 0.2 1 180 1
349 0.52 2 180 0
350 1.8 1 0 1
351 1.8 1 0 1
352 1.8 1 0 1
353 1.8 1 0 1
354 0 1 0 1
355 0 1 0 1
356 3.1 2 180 0.5
357 3.1 2 180 1
358 4.2 2 180 1
359 3.1 2 180 1
360 0.29 3 180 0
361 3 2 180 0.5
362 4.2 2 180 1
363 1.07 1 0 1
364 0.24 2 180 0
365 0.17 3 180 0
366 0 6 0 1
367 0.99 2 180 1
368 3 2 180 0.5
369 4 2 180 1
370 3 2 180 1
371 0.14 1 180 1
372 0.2 3 0 1
373 0.52 1 180 1
374 0.62 2 180 0
375 1.58 3 0 0
376 3 2 180 1
377 5 2 180 0
378 0.03 1 0 1
379 0.55 2 0 0
380 0.39 3 180 0
381 0.01 3 0 1
382 0.26 2 180 0
383 3 2 180 1
384 6.5 2 180 0
385 3.1 2 180 0.5
386 4.2 2 180 1
387 3 2 180 0.5
388 4 2 180 1
389 4 2 180 1
390 2.5 2 180 1
391 0.2 2 180 1
392 1.6 3 180 1

Atoms # full

249 16 3 8.9999999999999997e-02 -7.1385421086430270e+01 -3.3232276157742547e+02 -8.5431913248536731e+00 0 1 0
284 18 3 8.9999999999999997e-02 -6.3495184805133647e+01 -3.3524062338641897e+02 -1.8040814357281448e+01 0 1 0
540 36 9 -2.7000000000000002e-01 -6.4266662594975358e+01 -3.6788992688980716e+02 -8.7538561507664241e+00 0 1 0
541 36 3 8.9999999999999997e-02 -6.4826050139639577e+01 -3.6867866016490223e+02 -9.2982700949346366e+00 0 1 0
537 36 7 -1.7999999999999999e-01 -6.2848372303861353e+01 -3.6773257971086758e+02 -9.3119975245875537e+00 0 1 0
538 36 2 8.9999999999999997e-02 -6.2997624552989677e+01 -3.6755639593791545e+02 -1.0464633099223796e+01 0 1 0
539 36 2 8.9999999999999997e-02 -6.2357305305292442e+01 -3.6872045808750272e+02 -9.1810981539601997e+00 0 1 0
543 36 3 8.9999999999999997e-02 -6.4831870604650746e+01 -3.6693974925735654e+02 -8.9877623513660936e+00 0 1 0
497 34 2 8.9999999999999997e-02 -6.4053374856732219e+01 -3.6074756724176382e+02 -9.2566839274527482e+00 0 1 0
132 9 34 8.9999999999999997e-02 -6.5876601510983122e+01 -3.1996914893540242e+02 -9.9009960962225492e+00 0 1 0
532 36 40 8.9999999999999997e-02 -6.2579635102433144e+01 -3.6564181528661777e+02 -9.0457962729884400e+00 0 1 0
119 8 6 7.0000000000000007e-02 -6.2201544988087882e+01 -3.1841087313787091e+02 -9.0143508535635917e+00 0 1 0
136 9 6 -8.9999999999999997e-02 -6.6428563119662684e+01 -3.2145514373575730e+02 -1.2302975038445474e+01 0 1 0
454 31 31 -6.6000000000000003e-01 -6.2264047204691423e+01 -3.5048011683916820e+02 -9.8530482382475100e+00 0 1 0
242 16 34 8.9999999999999997e-02 -6.8987130079925905e+01 -3.3501842799331951e+02 -8.7042381594539719e+00 0 1 0
433 29 31 -6.6000000000000003e-01 -6.2355769321481318e+01 -3.4298600101494679e+02 -1.0391724332078418e+01 0 1 0
267 17 29 -5.1000000000000001e-01 -6.6166968490665710e+01 -3.3785856558187930e+02 -1.2506649906224261e+01 0 1 0
261 17 34 8.9999999999999997e-02 -6.8670207201946610e+01 -3.3788663559045790e+02 -1.2115383638321816e+01 0 1 0
405 27 37 1.3000000000000000e-01 -6.2344978539875939e+01 -3.3850238130139695e+02 -1.1874901736440222e+01 0 1 0
263 17 3 8.9999999999999997e-02 -6.9205694350404627e+01 -3.3769085109617413e+02 -1.4615345898717504e+01 0 1 0
5823 378 35 1.0000000000000000e+00 -6.5400674503968759e+01 -3.3814881494130901e+02 -9.7229731252038434e+00 3 2 0
250 16 3 8.9999999999999997e-02 -7.1847186470679020e+01 -3.3180069280645415e+02 -1.0221751766705516e+01 0 1 0
115 7 4 5.1000000000000001e-01 -6.2021895749936007e+01 -3.1602375375088786e+02 -8.5528169359839339e+00 0 1 0
248 16 9 -2.7000000000000002e-01 -7.1800027068981507e+01 -3.3269294768165679e+02 -9.5260059998499997e+00 0 1 0
246 16 6 -8.9999999999999997e-02 -7.1079650053595770e+01 -3.3390083362016111e+02 -1.0086732386685732e+01 0 1 0
254 16 3 8.9999999999999997e-02 -7.1412995226793058e+01 -3.3340851091818695e+02 -1.2169552866385331e+01 0 1 0
316 21 31 -6.6000000000000003e-01 -7.1515640919019830e+01 -3.3067951887203367e+02 -1.2625562312824371e+01 0 1 0
302 20 2 8.9999999999999997e-02 -6.9556754582330072e+01 -3.3121791302562525e+02 -1.5787099667091947e+01 0 1 0
317 21 1 4.2999999999999999e-01 -7.0736181068070920e+01 -3.3123185289848533e+02 -1.2888618329632305e+01 0 1 0
264 17 3 8.9999999999999997e-02 -7.0323105759386678e+01 -3.3671326505053469e+02 -1.3684948667546031e+01 0 1 0
306 20 30 -7.6000000000000001e-01 -6.9532085296380643e+01 -3.3221389793958531e+02 -1.3508469310109884e+01 0 1 0
255 16 3 8.9999999999999997e-02 -7.1271381816384917e+01 -3.3520809887583744e+02 -1.1914910168332426e+01 0 1 0
252 16 9 -2.7000000000000002e-01 -7.1689460233347589e+01 -3.3427496417797516e+02 -1.1474070784944594e+01 0 1 0
253 16 3 8.9999999999999997e-02 -7.2748957070525620e+01 -3.3427371124080167e+02 -1.1379207849410733e+01 0 1 0
243 16 7 -1.7999999999999999e-01 -6.9541574520692564e+01 -3.3349154755350628e+02 -1.0192206527616356e+01 0 1 0
251 16 3 8.9999999999999997e-02 -7.2907794334825866e+01 -3.3302146566541904e+02 -9.3215993643299910e+00 0 1 0
247 16 40 8.9999999999999997e-02 -7.1182803362695893e+01 -3.3466988252411369e+02 -9.3745295698432827e+00 0 1 0
282 18 3 8.9999999999999997e-02 -6.3253709815396462e+01 -3.3364463468421991e+02 -1.7069362477908257e+01 0 1 0
241 16 6 7.0000000000000007e-02 -6.8587356995856240e+01 -3.3465245230857442e+02 -9.6851177086617284e+00 0 1 0
402 27 1 3.2000000000000001e-01 -6.2204668924773870e+01 -3.3631739389593673e+02 -1.0591830768149485e+01 0 1 0
279 18 3 8.9999999999999997e-02 -6.2987300551603127e+01 -3.3719865102809081e+02 -1.6914393466381593e+01 0 1 0
303 20 2 8.9999999999999997e-02 -6.8526644106059877e+01 -3.3257450451585737e+02 -1.6571133000884291e+01 0 1 0
301 20 7 -2.8000000000000003e-01 -6.8636801732933790e+01 -3.3184720891390890e+02 -1.5717096699519708e+01 0 1 0
310 21 1 3.1000000000000000e-01 -6.9250607887394992e+01 -3.3040410060683666e+02 -1.3868696231253356e+01 0 1 0
235 15 30 -7.6000000000000001e-01 -6.3434260701702058e+01 -3.3600652537074376e+02 -9.2885750173421613e+00 0 1 0
256 16 4 5.1000000000000001e-01 -6.8592201535650105e+01 -3.3592013384276947e+02 -1.0454283411058981e+01 0 1 0
262 17 9 -2.7000000000000002e-01 -6.9284036443348285e+01 -3.3683330466085965e+02 -1.3983263998730248e+01 0 1 0
265 17 3 8.9999999999999997e-02 -6.9048072916175528e+01 -3.3594241859134115e+02 -1.4582898316580547e+01 0 1 0
240 16 1 3.1000000000000000e-01 -6.6575400026098151e+01 -3.3466203831830666e+02 -9.9565396375503497e+00 0 1 0
266 17 4 5.1000000000000001e-01 -6.6915169676273550e+01 -3.3698550692358111e+02 -1.2933639068959188e+01 0 1 0
271 18 34 8.9999999999999997e-02 -6.4456966635787495e+01 -3.3653275232434095e+02 -1.3514820587117889e+01 0 1 0
260 17 6 7.0000000000000007e-02 -6.8461684725891502e+01 -3.3697469576278132e+02 -1.2688280673555845e+01 0 1 0
273 18 2 8.9999999999999997e-02 -6.5219229609710695e+01 -3.3629805162922725e+02 -1.5962406196616580e+01 0 1 0
277 18 9 -2.7000000000000002e-01 -6.2667112396966935e+01 -3.3681217452088617e+02 -1.5957711707647640e+01 0 1 0
245 16 2 8.9999999999999997e-02 -6.9338749377043882e+01 -3.3322063171405392e+02 -1.1276518001583803e+01 0 1 0
268 18 24 -4.6999999999999997e-01 -6.6401318808741237e+01 -3.3597356553704526e+02 -1.3577412210938693e+01 0 1 0
299 20 2 8.9999999999999997e-02 -6.7553007888050729e+01 -3.3021166869180041e+02 -1.6760132575363865e+01 0 1 0
305 20 30 -7.6000000000000001e-01 -6.7867462217746052e+01 -3.3355321104560846e+02 -1.4212558739050138e+01 0 1 0
269 18 1 3.1000000000000000e-01 -6.7056604398938276e+01 -3.3519552968057820e+02 -1.3836935871131750e+01 0 1 0
296 20 6 7.0000000000000007e-02 -6.6880119095836349e+01 -3.3015371018629048e+02 -1.4608584830132443e+01 0 1 0
288 19 1 3.1000000000000000e-01 -6.6244802909358143e+01 -3.3348447520895672e+02 -1.3384660389438832e+01 0 1 0
298 20 8 -1.7999999999999999e-01 -6.7376254328419392e+01 -3.3091070454685996e+02 -1.5862301437643215e+01 0 1 0
294 20 24 -4.6999999999999997e-01 -6.6645842075399557e+01 -3.3098897780955838e+02 -1.3455108253467493e+01 0 1 0
289 19 7 -2.0000000000000000e-02 -6.5057942394891413e+01 -3.3230904642336094e+02 -1.2153123531126717e+01 0 1 0
287 19 24 -4.6999999999999997e-01 -6.5355364533172562e+01 -3.3347185590856151e+02 -1.2899902115354156e+01 0 1 0
285 18 4 5.1000000000000001e-01 -6.4571562536082467e+01 -3.3457524381262039e+02 -1.2995134359807288e+01 0 1 0
292 19 4 5.1000000000000001e-01 -6.5377640594840500e+01 -3.3109376626594724e+02 -1.2988738184184271e+01 0 1 0
270 18 6 7.0000000000000007e-02 -6.5033747963451276e+01 -3.3570721653670472e+02 -1.3856654559655926e+01 0 1 0
300 20 2 8.9999999999999997e-02 -6.6516474736081520e+01 -3.3163208214897412e+02 -1.6105744996032300e+01 0 1 0
274 18 2 8.9999999999999997e-02 -6.5330488645939468e+01 -3.3449386219700369e+02 -1.5575505856591825e+01 0 1 0
290 19 36 8.9999999999999997e-02 -6.3968090448055520e+01 -3.3225614262484248e+02 -1.1897166991122980e+01 0 1 0
272 18 7 -1.7999999999999999e-01 -6.4769622199215391e+01 -3.3543779428792516e+02 -1.5392113223844945e+01 0 1 0
293 19 29 -5.1000000000000001e-01 -6.4461442197335032e+01 -3.3035692852770154e+02 -1.3284144124203337e+01 0 1 0
286 18 29 -5.1000000000000001e-01 -6.3484087234455998e+01 -3.3469107985808927e+02 -1.2331510636533714e+01 0 1 0
276 18 40 8.9999999999999997e-02 -6.2664508735313163e+01 -3.3480108554091623e+02 -1.5041089257489297e+01 0 1 0
275 18 6 -8.9999999999999997e-02 -6.3243593508234483e+01 -3.3539740494459170e+02 -1.5819351680037872e+01 0 1 0
281 18 9 -2.7000000000000002e-01 -6.2949570273868190e+01 -3.3465727744899436e+02 -1.7189354140525214e+01 0 1 0
295 20 1 3.1000000000000000e-01 -6.7249822053603609e+01 -3.3182165790919959e+02 -1.3392348503099729e+01 0 1 0
291 19 36 8.9999999999999997e-02 -6.5716159078756462e+01 -3.3225388247937803e+02 -1.1255465150319758e+01 0 1 0
304 20 18 6.2000000000000000e-01 -6.8816331037975672e+01 -3.3274120022557463e+02 -1.4445488930392539e+01 0 1 0
258 17 24 -4.6999999999999997e-01 -6.8758994254943346e+01 -3.3584096825424336e+02 -1.1805656874558515e+01 0 1 0
321 22 1 3.1000000000000000e-01 -6.9008994737821396e+01 -3.3058317584138632e+02 -1.1579840323415574e+01 0 1 0
259 17 1 3.1000000000000000e-01 -6.9078028221992838e+01 -3.3495235173007615e+02 -1.2240373499414432e+01 0 1 0
232 15 2 8.9999999999999997e-02 -6.4734949706116794e+01 -3.3400424173098730e+02 -1.0159044041908452e+01 0 1 0
323 22 36 8.9999999999999997e-02 -6.8377698977901829e+01 -3.3071346058136663e+02 -9.1901744986693501e+00 0 1 0
257 16 29 -5.1000000000000001e-01 -6.8033398983760179e+01 -3.3688011123787811e+02 -9.9378129722900539e+00 0 1 0
344 24 34 8.9999999999999997e-02 -6.2746720960636367e+01 -3.3035615752983870e+02 -1.0137477219507879e+01 0 1 0
239 16 24 -4.6999999999999997e-01 -6.7253501311259683e+01 -3.3410885035490605e+02 -9.4712392495173461e+00 0 1 0
231 15 8 -2.8000000000000003e-01 -6.4455134396294753e+01 -3.3390822257657612e+02 -9.0748438295269338e+00 0 1 0
233 15 2 8.9999999999999997e-02 -6.3442516883055347e+01 -3.3346246753624644e+02 -8.9490165696150044e+00 0 1 0
278 18 3 8.9999999999999997e-02 -6.3140648985694909e+01 -3.3754512230850179e+02 -1.5178980103086221e+01 0 1 0
244 16 2 8.9999999999999997e-02 -6.9401454457210093e+01 -3.3254175226581748e+02 -9.5597560709614058e+00 0 1 0
128 8 29 -5.1000000000000001e-01 -6.4512262395454329e+01 -3.1797418342893047e+02 -9.0147712448727688e+00 0 1 0
347 24 2 8.9999999999999997e-02 -6.2223004362059996e+01 -3.3056467543871332e+02 -1.2546099947957416e+01 0 1 0
314 21 2 8.9999999999999997e-02 -7.2191961815885620e+01 -3.2874173302083699e+02 -1.2613823727906897e+01 0 1 0
315 21 2 8.9999999999999997e-02 -7.1697210810358811e+01 -3.2954064403411718e+02 -1.4169392527720742e+01 0 1 0
313 21 7 5.0000000000000003e-02 -7.1425599076435589e+01 -3.2938510492699510e+02 -1.3115470099534079e+01 0 1 0
312 21 34 8.9999999999999997e-02 -7.0023610911227124e+01 -3.2769672627841044e+02 -1.3340526600090719e+01 0 1 0
311 21 6 7.0000000000000007e-02 -7.0004994870707222e+01 -3.2875408419345513e+02 -1.2935024113146941e+01 0 1 0
318 21 4 5.1000000000000001e-01 -6.9737957172768148e+01 -3.2869703464274647e+02 -1.1457225818976141e+01 0 1 0
319 21 29 -5.1000000000000001e-01 -6.9578859754858925e+01 -3.2761642354358509e+02 -1.0902677699353859e+01 0 1 0
180 11 2 8.9999999999999997e-02 -7.0472043846915426e+01 -3.2600658714977891e+02 -9.3072831821621094e+00 0 1 0
297 20 34 8.9999999999999997e-02 -6.5927054585847358e+01 -3.2971177208430646e+02 -1.5001860865176543e+01 0 1 0
322 22 7 -2.0000000000000000e-02 -6.8338949190073222e+01 -3.2974944023070003e+02 -9.6932792801762275e+00 0 1 0
171 11 17 0.0000000000000000e+00 -6.8650428661382648e+01 -3.2472774048015134e+02 -8.6788020994351811e+00 0 1 0
326 22 29 -5.1000000000000001e-01 -6.5957285126515004e+01 -3.3000396245592390e+02 -9.6385075172185637e+00 0 1 0
324 22 36 8.9999999999999997e-02 -6.8923740627823094e+01 -3.2906432089483275e+02 -9.0454416147308692e+00 0 1 0
320 22 24 -4.6999999999999997e-01 -6.9143244265233974e+01 -3.2978237428088198e+02 -1.0912829769451491e+01 0 1 0
309 21 24 -4.6999999999999997e-01 -6.9010699675112591e+01 -3.2948999554948801e+02 -1.3726974747565414e+01 0 1 0
342 24 1 3.1000000000000000e-01 -6.3860926512203761e+01 -3.2916585518446732e+02 -1.1872128160064001e+01 0 1 0
307 20 4 5.1000000000000001e-01 -6.7815064219098360e+01 -3.2908430574508429e+02 -1.4191634355269159e+01 0 1 0
328 23 1 3.1000000000000000e-01 -6.7484587116573934e+01 -3.2735240018644799e+02 -1.0425651774141379e+01 0 1 0
341 24 24 -4.6999999999999997e-01 -6.3433822347475569e+01 -3.2875434977277780e+02 -1.1090434819785202e+01 0 1 0
332 23 40 8.9999999999999997e-02 -6.5675193342910561e+01 -3.2548247579894019e+02 -1.0615152901684624e+01 0 1 0
333 23 31 -6.6000000000000003e-01 -6.6885271022603476e+01 -3.2592511351086455e+02 -1.2123177363709573e+01 0 1 0
334 23 1 4.2999999999999999e-01 -6.7013763651012638e+01 -3.2678302723576581e+02 -1.2512771403421141e+01 0 1 0
339 23 4 5.1000000000000001e-01 -6.4211063525576591e+01 -3.2781812788858690e+02 -1.0522775234422632e+01 0 1 0
329 23 6 7.0000000000000007e-02 -6.5537375629505107e+01 -3.2762570689238845e+02 -1.1216625646796039e+01 0 1 0
330 23 34 8.9999999999999997e-02 -6.5588023347953467e+01 -3.2819246614591657e+02 -1.2069683436702221e+01 0 1 0
338 23 3 8.9999999999999997e-02 -6.3670387276134122e+01 -3.2559494871073656e+02 -1.2099662298963338e+01 0 1 0
337 23 3 8.9999999999999997e-02 -6.4975829399848053e+01 -3.2471435690230783e+02 -1.2957713491286860e+01 0 1 0
336 23 3 8.9999999999999997e-02 -6.4529189806882471e+01 -3.2650920277243546e+02 -1.3343522520078341e+01 0 1 0
331 23 6 1.4000000000000001e-01 -6.5625510564581631e+01 -3.2611652273371135e+02 -1.1497263633314986e+01 0 1 0
335 23 9 -2.7000000000000002e-01 -6.4620416282888627e+01 -3.2569762928821063e+02 -1.2542639610143887e+01 0 1 0
308 20 29 -5.1000000000000001e-01 -6.7429910048972701e+01 -3.2793447877711804e+02 -1.3960873545810053e+01 0 1 0
327 23 24 -4.6999999999999997e-01 -6.6692174372422940e+01 -3.2802478158267019e+02 -1.0336883965840279e+01 0 1 0
340 23 29 -5.1000000000000001e-01 -6.3957238586846699e+01 -3.2725314411690931e+02 -9.4579384112029743e+00 0 1 0
173 11 2 8.9999999999999997e-02 -6.8868379086775263e+01 -3.2386432157323162e+02 -9.3432394190623427e+00 0 1 0
356 24 23 1.1500000000000000e-01 -6.2563185208375415e+01 -3.2838543492836641e+02 -1.3779450118032450e+01 0 1 0
325 22 4 5.1000000000000001e-01 -6.6909634734180955e+01 -3.2927425898119736e+02 -9.8741313853578134e+00 0 1 0
151 10 34 8.9999999999999997e-02 -6.6023956407246416e+01 -3.2407157731720815e+02 -8.8184346687546267e+00 0 1 0
343 24 6 7.0000000000000007e-02 -6.2333437461324309e+01 -3.2953100474270656e+02 -1.0573826799977077e+01 0 1 0
172 11 2 8.9999999999999997e-02 -6.7794726626041935e+01 -3.2521044256076044e+02 -9.1447020030069552e+00 0 1 0
137 9 40 8.9999999999999997e-02 -6.6518131136839102e+01 -3.2246055856353559e+02 -1.1814488118291457e+01 0 1 0
147 9 29 -5.1000000000000001e-01 -6.4423802002528831e+01 -3.2279092077034483e+02 -1.0163192793357787e+01 0 1 0
380 25 12 3.3000000000000002e-01 -6.2706305368795171e+01 -3.2352889694284943e+02 -9.8971139407277207e+00 0 1 0
130 9 1 3.1000000000000000e-01 -6.3023087761363222e+01 -3.2040599660553784e+02 -1.0238771166283016e+01 0 1 0
434 29 1 4.2999999999999999e-01 -6.3198997822695461e+01 -3.4259211226871321e+02 -1.0577550926754739e+01 0 1 0
134 9 2 8.9999999999999997e-02 -6.5064497800763291e+01 -3.1967715429043039e+02 -1.2252725677979832e+01 0 1 0
144 9 3 8.9999999999999997e-02 -6.5952525700091300e+01 -3.2073661395725037e+02 -1.4396008177448440e+01 0 1 0
140 9 3 8.9999999999999997e-02 -6.7457326370643685e+01 -3.1950184325298994e+02 -1.2206298263188145e+01 0 1 0
131 9 6 7.0000000000000007e-02 -6.5057656876432986e+01 -3.2050974923572016e+02 -1.0269311945038659e+01 0 1 0
133 9 7 -1.7999999999999999e-01 -6.5148384555251255e+01 -3.2074467064646927e+02 -1.1793856073190099e+01 0 1 0
138 9 9 -2.7000000000000002e-01 -6.7701834742381607e+01 -3.2056628625261936e+02 -1.2016615745933493e+01 0 1 0
135 9 2 8.9999999999999997e-02 -6.4264572369754490e+01 -3.2136093041566926e+02 -1.2170086134863617e+01 0 1 0
129 9 24 -4.6999999999999997e-01 -6.3802466283077777e+01 -3.1987253524891952e+02 -1.0099082327868956e+01 0 1 0
145 9 3 8.9999999999999997e-02 -6.5506742717032282e+01 -3.2247048069655989e+02 -1.4074711130257658e+01 0 1 0
143 9 3 8.9999999999999997e-02 -6.7187080886508099e+01 -3.2205124653738767e+02 -1.4332691919748157e+01 0 1 0
141 9 3 8.9999999999999997e-02 -6.8386167622558290e+01 -3.2083193533040588e+02 -1.2827126036801964e+01 0 1 0
142 9 9 -2.7000000000000002e-01 -6.6247323336962992e+01 -3.2164519559266773e+02 -1.3877404198033808e+01 0 1 0
127 8 4 5.1000000000000001e-01 -6.3616657079972995e+01 -3.1867663908969575e+02 -9.4495509957979422e+00 0 1 0
139 9 3 8.9999999999999997e-02 -6.8162179029195130e+01 -3.2070975899407040e+02 -1.1042882185273058e+01 0 1 0
146 9 4 5.1000000000000001e-01 -6.5053679282238932e+01 -3.2190213099898199e+02 -9.6298923396076574e+00 0 1 0
442 30 1 3.1000000000000000e-01 -6.2520695252499351e+01 -3.4443804823413575e+02 -8.6312756050257278e+00 0 1 0
234 15 18 6.2000000000000000e-01 -6.4262329823458131e+01 -3.3535503338703927e+02 -8.6063160166428432e+00 0 1 0
453 31 40 8.9999999999999997e-02 -6.2094194856046805e+01 -3.4843508474078567e+02 -9.7106909689455918e+00 0 1 0
493 34 3 8.9999999999999997e-02 -6.2190664316782879e+01 -3.5980915167686766e+02 -1.0320910893478981e+01 0 1 0
447 30 29 -5.1000000000000001e-01 -6.3233057044523157e+01 -3.4650399623332379e+02 -8.5287038082508886e+00 0 1 0
230 15 34 8.9999999999999997e-02 -6.5410592314727580e+01 -3.3208443670646722e+02 -8.6028785680307251e+00 0 1 0
551 37 40 8.9999999999999997e-02 -6.2868814730928392e+01 -3.7036578765301988e+02 -4.7268156202050591e+00 0 1 0
547 37 1 3.1000000000000000e-01 -6.2412279427458458e+01 -3.6875557814824185e+02 -7.1384028358670335e+00 0 1 0
542 36 3 8.9999999999999997e-02 -6.4262921707585662e+01 -3.6813328198234137e+02 -7.7096085310366576e+00 0 1 0
423 28 3 8.9999999999999997e-02 -6.3137503510146828e+01 -3.3901003674595660e+02 -3.6394798492372544e+00 0 1 0
553 37 1 4.2999999999999999e-01 -6.2287117154606122e+01 -3.6920482422739832e+02 -2.9367185147969224e+00 0 1 0
496 34 7 -1.7999999999999999e-01 -6.3551221707394134e+01 -3.6071053295822219e+02 -8.2567979587732552e+00 0 1 0